n -t * -s 0  -x 0 -y 175 -Z 0 -z 10  -v circle -c black
n -t * -s 1  -x 50 -y 100 -Z 0 -z 10  -v circle -c black
n -t * -s 2  -x 50 -y 150 -Z 0 -z 10  -v circle -c black
n -t * -s 3  -x 50 -y 200 -Z 0 -z 10  -v circle -c black
n -t * -s 4  -x 50 -y 250 -Z 0 -z 10  -v circle -c black
n -t * -s 5  -x 100 -y 100 -Z 0 -z 10  -v circle -c black
n -t * -s 6  -x 100 -y 150 -Z 0 -z 10  -v circle -c black
n -t * -s 7  -x 100 -y 200 -Z 0 -z 10  -v circle -c black
n -t * -s 8  -x 100 -y 250 -Z 0 -z 10  -v circle -c black
n -t * -s 9  -x 150 -y 100 -Z 0 -z 10  -v circle -c black
n -t * -s 10  -x 150 -y 150 -Z 0 -z 10  -v circle -c black
n -t * -s 11  -x 150 -y 200 -Z 0 -z 10  -v circle -c black
n -t * -s 12  -x 150 -y 250 -Z 0 -z 10  -v circle -c black
n -t * -s 13  -x 200 -y 100 -Z 0 -z 10  -v circle -c black
n -t * -s 14  -x 200 -y 150 -Z 0 -z 10  -v circle -c black
n -t * -s 15  -x 200 -y 200 -Z 0 -z 10  -v circle -c black
n -t * -s 16  -x 200 -y 250 -Z 0 -z 10  -v circle -c black
n -t * -s 17  -x 250 -y 100 -Z 0 -z 10  -v circle -c black
n -t * -s 18  -x 250 -y 150 -Z 0 -z 10  -v circle -c black
n -t * -s 19  -x 250 -y 200 -Z 0 -z 10  -v circle -c black
n -t * -s 20  -x 250 -y 250 -Z 0 -z 10  -v circle -c black
n -t * -s 21  -x 300 -y 125 -Z 0 -z 10  -v circle -c black
n -t * -s 22  -x 300 -y 175 -Z 0 -z 10  -v circle -c black
n -t * -s 23  -x 300 -y 225 -Z 0 -z 10  -v circle -c black
V -t * -v 1.0a5 -a 0
W -t * -x 500 -y 500
A -t * -n 1 -p 0 -o 0x7fffffff -c 30 -a 1
A -t * -h 1 -m 1073741823 -s 0
+ -t 0.100000000 -s 0 -d -1 -p undefined -e 20 -c 2 -a 0 -i 0 -k RTR 
- -t 0.100000000 -s 0 -d -1 -p undefined -e 20 -c 2 -a 0 -i 0 -k RTR
h -t 0.100000000 -s 0 -d -1 -p undefined -e 20 -c 2 -a 0 -i 0 -k RTR
r -t 0.101184186 -s 2 -d -1 -p undefined -e 20 -c 2 -a 0 -i 0 -k RTR
+ -t 0.101184186 -s 2 -d -1 -p undefined -e 20 -c 2 -a 0 -i 0 -k RTR 
- -t 0.101184186 -s 2 -d -1 -p undefined -e 20 -c 2 -a 0 -i 0 -k RTR
h -t 0.101184186 -s 2 -d -1 -p undefined -e 20 -c 2 -a 0 -i 0 -k RTR
r -t 0.101184186 -s 3 -d -1 -p undefined -e 20 -c 2 -a 0 -i 0 -k RTR
+ -t 0.101184186 -s 3 -d -1 -p undefined -e 20 -c 2 -a 0 -i 0 -k RTR 
- -t 0.101184186 -s 3 -d -1 -p undefined -e 20 -c 2 -a 0 -i 0 -k RTR
h -t 0.101184186 -s 3 -d -1 -p undefined -e 20 -c 2 -a 0 -i 0 -k RTR
r -t 0.102208353 -s 2 -d -1 -p undefined -e 20 -c 2 -a 0 -i 0 -k RTR
r -t 0.102208353 -s 4 -d -1 -p undefined -e 20 -c 2 -a 0 -i 0 -k RTR
+ -t 0.102208353 -s 4 -d -1 -p undefined -e 20 -c 2 -a 0 -i 0 -k RTR 
- -t 0.102208353 -s 4 -d -1 -p undefined -e 20 -c 2 -a 0 -i 0 -k RTR
h -t 0.102208353 -s 4 -d -1 -p undefined -e 20 -c 2 -a 0 -i 0 -k RTR
r -t 0.102208353 -s 7 -d -1 -p undefined -e 20 -c 2 -a 0 -i 0 -k RTR
+ -t 0.102208353 -s 7 -d -1 -p undefined -e 20 -c 2 -a 0 -i 0 -k RTR 
- -t 0.102208353 -s 7 -d -1 -p undefined -e 20 -c 2 -a 0 -i 0 -k RTR
h -t 0.102208353 -s 7 -d -1 -p undefined -e 20 -c 2 -a 0 -i 0 -k RTR
r -t 0.102208373 -s 0 -d -1 -p undefined -e 20 -c 2 -a 0 -i 0 -k RTR
r -t 0.102208422 -s 6 -d -1 -p undefined -e 20 -c 2 -a 0 -i 0 -k RTR
+ -t 0.102208422 -s 6 -d -1 -p undefined -e 20 -c 2 -a 0 -i 0 -k RTR 
- -t 0.102208422 -s 6 -d -1 -p undefined -e 20 -c 2 -a 0 -i 0 -k RTR
h -t 0.102208422 -s 6 -d -1 -p undefined -e 20 -c 2 -a 0 -i 0 -k RTR
r -t 0.102208422 -s 8 -d -1 -p undefined -e 20 -c 2 -a 0 -i 0 -k RTR
+ -t 0.102208422 -s 8 -d -1 -p undefined -e 20 -c 2 -a 0 -i 0 -k RTR 
- -t 0.102208422 -s 8 -d -1 -p undefined -e 20 -c 2 -a 0 -i 0 -k RTR
h -t 0.102208422 -s 8 -d -1 -p undefined -e 20 -c 2 -a 0 -i 0 -k RTR
r -t 0.102932520 -s 3 -d -1 -p undefined -e 20 -c 2 -a 0 -i 0 -k RTR
r -t 0.102932520 -s 8 -d -1 -p undefined -e 20 -c 2 -a 0 -i 0 -k RTR
r -t 0.102932589 -s 7 -d -1 -p undefined -e 20 -c 2 -a 0 -i 0 -k RTR
r -t 0.103766755 -s 6 -d -1 -p undefined -e 20 -c 2 -a 0 -i 0 -k RTR
r -t 0.103766755 -s 3 -d -1 -p undefined -e 20 -c 2 -a 0 -i 0 -k RTR
r -t 0.103766755 -s 8 -d -1 -p undefined -e 20 -c 2 -a 0 -i 0 -k RTR
r -t 0.103766755 -s 11 -d -1 -p undefined -e 20 -c 2 -a 0 -i 0 -k RTR
+ -t 0.103766755 -s 11 -d -1 -p undefined -e 20 -c 2 -a 0 -i 0 -k RTR 
- -t 0.103766755 -s 11 -d -1 -p undefined -e 20 -c 2 -a 0 -i 0 -k RTR
h -t 0.103766755 -s 11 -d -1 -p undefined -e 20 -c 2 -a 0 -i 0 -k RTR
r -t 0.103766824 -s 4 -d -1 -p undefined -e 20 -c 2 -a 0 -i 0 -k RTR
r -t 0.103766824 -s 2 -d -1 -p undefined -e 20 -c 2 -a 0 -i 0 -k RTR
r -t 0.103766824 -s 10 -d -1 -p undefined -e 20 -c 2 -a 0 -i 0 -k RTR
+ -t 0.103766824 -s 10 -d -1 -p undefined -e 20 -c 2 -a 0 -i 0 -k RTR 
- -t 0.103766824 -s 10 -d -1 -p undefined -e 20 -c 2 -a 0 -i 0 -k RTR
h -t 0.103766824 -s 10 -d -1 -p undefined -e 20 -c 2 -a 0 -i 0 -k RTR
r -t 0.103766824 -s 12 -d -1 -p undefined -e 20 -c 2 -a 0 -i 0 -k RTR
+ -t 0.103766824 -s 12 -d -1 -p undefined -e 20 -c 2 -a 0 -i 0 -k RTR 
- -t 0.103766824 -s 12 -d -1 -p undefined -e 20 -c 2 -a 0 -i 0 -k RTR
h -t 0.103766824 -s 12 -d -1 -p undefined -e 20 -c 2 -a 0 -i 0 -k RTR
r -t 0.104520922 -s 7 -d -1 -p undefined -e 20 -c 2 -a 0 -i 0 -k RTR
r -t 0.104520922 -s 4 -d -1 -p undefined -e 20 -c 2 -a 0 -i 0 -k RTR
r -t 0.104520922 -s 12 -d -1 -p undefined -e 20 -c 2 -a 0 -i 0 -k RTR
r -t 0.104520991 -s 3 -d -1 -p undefined -e 20 -c 2 -a 0 -i 0 -k RTR
r -t 0.104520991 -s 11 -d -1 -p undefined -e 20 -c 2 -a 0 -i 0 -k RTR
r -t 0.105415158 -s 10 -d -1 -p undefined -e 20 -c 2 -a 0 -i 0 -k RTR
r -t 0.105415158 -s 7 -d -1 -p undefined -e 20 -c 2 -a 0 -i 0 -k RTR
r -t 0.105415158 -s 12 -d -1 -p undefined -e 20 -c 2 -a 0 -i 0 -k RTR
r -t 0.105415158 -s 15 -d -1 -p undefined -e 20 -c 2 -a 0 -i 0 -k RTR
+ -t 0.105415158 -s 15 -d -1 -p undefined -e 20 -c 2 -a 0 -i 0 -k RTR 
- -t 0.105415158 -s 15 -d -1 -p undefined -e 20 -c 2 -a 0 -i 0 -k RTR
h -t 0.105415158 -s 15 -d -1 -p undefined -e 20 -c 2 -a 0 -i 0 -k RTR
r -t 0.105415227 -s 8 -d -1 -p undefined -e 20 -c 2 -a 0 -i 0 -k RTR
r -t 0.105415227 -s 6 -d -1 -p undefined -e 20 -c 2 -a 0 -i 0 -k RTR
r -t 0.105415227 -s 14 -d -1 -p undefined -e 20 -c 2 -a 0 -i 0 -k RTR
+ -t 0.105415227 -s 14 -d -1 -p undefined -e 20 -c 2 -a 0 -i 0 -k RTR 
- -t 0.105415227 -s 14 -d -1 -p undefined -e 20 -c 2 -a 0 -i 0 -k RTR
h -t 0.105415227 -s 14 -d -1 -p undefined -e 20 -c 2 -a 0 -i 0 -k RTR
r -t 0.105415227 -s 16 -d -1 -p undefined -e 20 -c 2 -a 0 -i 0 -k RTR
+ -t 0.105415227 -s 16 -d -1 -p undefined -e 20 -c 2 -a 0 -i 0 -k RTR 
- -t 0.105415227 -s 16 -d -1 -p undefined -e 20 -c 2 -a 0 -i 0 -k RTR
h -t 0.105415227 -s 16 -d -1 -p undefined -e 20 -c 2 -a 0 -i 0 -k RTR
r -t 0.106109324 -s 9 -d -1 -p undefined -e 20 -c 2 -a 0 -i 0 -k RTR
+ -t 0.106109324 -s 9 -d -1 -p undefined -e 20 -c 2 -a 0 -i 0 -k RTR 
- -t 0.106109324 -s 9 -d -1 -p undefined -e 20 -c 2 -a 0 -i 0 -k RTR
h -t 0.106109324 -s 9 -d -1 -p undefined -e 20 -c 2 -a 0 -i 0 -k RTR
r -t 0.106109324 -s 6 -d -1 -p undefined -e 20 -c 2 -a 0 -i 0 -k RTR
r -t 0.106109324 -s 11 -d -1 -p undefined -e 20 -c 2 -a 0 -i 0 -k RTR
r -t 0.106109324 -s 14 -d -1 -p undefined -e 20 -c 2 -a 0 -i 0 -k RTR
r -t 0.106109393 -s 7 -d -1 -p undefined -e 20 -c 2 -a 0 -i 0 -k RTR
r -t 0.106109393 -s 5 -d -1 -p undefined -e 20 -c 2 -a 0 -i 0 -k RTR
+ -t 0.106109393 -s 5 -d -1 -p undefined -e 20 -c 2 -a 0 -i 0 -k RTR 
- -t 0.106109393 -s 5 -d -1 -p undefined -e 20 -c 2 -a 0 -i 0 -k RTR
h -t 0.106109393 -s 5 -d -1 -p undefined -e 20 -c 2 -a 0 -i 0 -k RTR
r -t 0.106109393 -s 13 -d -1 -p undefined -e 20 -c 2 -a 0 -i 0 -k RTR
+ -t 0.106109393 -s 13 -d -1 -p undefined -e 20 -c 2 -a 0 -i 0 -k RTR 
- -t 0.106109393 -s 13 -d -1 -p undefined -e 20 -c 2 -a 0 -i 0 -k RTR
h -t 0.106109393 -s 13 -d -1 -p undefined -e 20 -c 2 -a 0 -i 0 -k RTR
r -t 0.106109393 -s 15 -d -1 -p undefined -e 20 -c 2 -a 0 -i 0 -k RTR
r -t 0.106883491 -s 5 -d -1 -p undefined -e 20 -c 2 -a 0 -i 0 -k RTR
r -t 0.106883491 -s 2 -d -1 -p undefined -e 20 -c 2 -a 0 -i 0 -k RTR
r -t 0.106883491 -s 7 -d -1 -p undefined -e 20 -c 2 -a 0 -i 0 -k RTR
r -t 0.106883491 -s 10 -d -1 -p undefined -e 20 -c 2 -a 0 -i 0 -k RTR
r -t 0.106883560 -s 3 -d -1 -p undefined -e 20 -c 2 -a 0 -i 0 -k RTR
r -t 0.106883560 -s 1 -d -1 -p undefined -e 20 -c 2 -a 0 -i 0 -k RTR
+ -t 0.106883560 -s 1 -d -1 -p undefined -e 20 -c 2 -a 0 -i 0 -k RTR 
- -t 0.106883560 -s 1 -d -1 -p undefined -e 20 -c 2 -a 0 -i 0 -k RTR
h -t 0.106883560 -s 1 -d -1 -p undefined -e 20 -c 2 -a 0 -i 0 -k RTR
r -t 0.106883560 -s 9 -d -1 -p undefined -e 20 -c 2 -a 0 -i 0 -k RTR
r -t 0.106883560 -s 11 -d -1 -p undefined -e 20 -c 2 -a 0 -i 0 -k RTR
r -t 0.107697658 -s 1 -d -1 -p undefined -e 20 -c 2 -a 0 -i 0 -k RTR
r -t 0.107697658 -s 3 -d -1 -p undefined -e 20 -c 2 -a 0 -i 0 -k RTR
r -t 0.107697658 -s 6 -d -1 -p undefined -e 20 -c 2 -a 0 -i 0 -k RTR
r -t 0.107697677 -s 0 -d -1 -p undefined -e 20 -c 2 -a 0 -i 0 -k RTR
r -t 0.107697727 -s 5 -d -1 -p undefined -e 20 -c 2 -a 0 -i 0 -k RTR
r -t 0.107697727 -s 7 -d -1 -p undefined -e 20 -c 2 -a 0 -i 0 -k RTR
r -t 0.108391893 -s 1 -d -1 -p undefined -e 20 -c 2 -a 0 -i 0 -k RTR
r -t 0.108391893 -s 6 -d -1 -p undefined -e 20 -c 2 -a 0 -i 0 -k RTR
r -t 0.108391893 -s 9 -d -1 -p undefined -e 20 -c 2 -a 0 -i 0 -k RTR
r -t 0.108391962 -s 2 -d -1 -p undefined -e 20 -c 2 -a 0 -i 0 -k RTR
r -t 0.108391962 -s 10 -d -1 -p undefined -e 20 -c 2 -a 0 -i 0 -k RTR
r -t 0.109206060 -s 13 -d -1 -p undefined -e 20 -c 2 -a 0 -i 0 -k RTR
r -t 0.109206129 -s 14 -d -1 -p undefined -e 20 -c 2 -a 0 -i 0 -k RTR
r -t 0.110304587 -s 13 -d -1 -p undefined -e 20 -c 2 -a 0 -i 0 -k RTR
r -t 0.110304587 -s 10 -d -1 -p undefined -e 20 -c 2 -a 0 -i 0 -k RTR
r -t 0.110304587 -s 15 -d -1 -p undefined -e 20 -c 2 -a 0 -i 0 -k RTR
r -t 0.110304587 -s 18 -d -1 -p undefined -e 20 -c 2 -a 0 -i 0 -k RTR
+ -t 0.110304587 -s 18 -d -1 -p undefined -e 20 -c 2 -a 0 -i 0 -k RTR 
- -t 0.110304587 -s 18 -d -1 -p undefined -e 20 -c 2 -a 0 -i 0 -k RTR
h -t 0.110304587 -s 18 -d -1 -p undefined -e 20 -c 2 -a 0 -i 0 -k RTR
r -t 0.110304656 -s 11 -d -1 -p undefined -e 20 -c 2 -a 0 -i 0 -k RTR
r -t 0.110304656 -s 9 -d -1 -p undefined -e 20 -c 2 -a 0 -i 0 -k RTR
r -t 0.110304656 -s 17 -d -1 -p undefined -e 20 -c 2 -a 0 -i 0 -k RTR
+ -t 0.110304656 -s 17 -d -1 -p undefined -e 20 -c 2 -a 0 -i 0 -k RTR 
- -t 0.110304656 -s 17 -d -1 -p undefined -e 20 -c 2 -a 0 -i 0 -k RTR
h -t 0.110304656 -s 17 -d -1 -p undefined -e 20 -c 2 -a 0 -i 0 -k RTR
r -t 0.110304656 -s 19 -d -1 -p undefined -e 20 -c 2 -a 0 -i 0 -k RTR
+ -t 0.110304656 -s 19 -d -1 -p undefined -e 20 -c 2 -a 0 -i 0 -k RTR 
- -t 0.110304656 -s 19 -d -1 -p undefined -e 20 -c 2 -a 0 -i 0 -k RTR
h -t 0.110304656 -s 19 -d -1 -p undefined -e 20 -c 2 -a 0 -i 0 -k RTR
r -t 0.111058754 -s 14 -d -1 -p undefined -e 20 -c 2 -a 0 -i 0 -k RTR
r -t 0.111058754 -s 11 -d -1 -p undefined -e 20 -c 2 -a 0 -i 0 -k RTR
r -t 0.111058754 -s 16 -d -1 -p undefined -e 20 -c 2 -a 0 -i 0 -k RTR
r -t 0.111058754 -s 19 -d -1 -p undefined -e 20 -c 2 -a 0 -i 0 -k RTR
r -t 0.111058823 -s 12 -d -1 -p undefined -e 20 -c 2 -a 0 -i 0 -k RTR
r -t 0.111058823 -s 10 -d -1 -p undefined -e 20 -c 2 -a 0 -i 0 -k RTR
r -t 0.111058823 -s 18 -d -1 -p undefined -e 20 -c 2 -a 0 -i 0 -k RTR
r -t 0.111058823 -s 20 -d -1 -p undefined -e 20 -c 2 -a 0 -i 0 -k RTR
+ -t 0.111058823 -s 20 -d -1 -p undefined -e 20 -c 2 -a 0 -i 0 -k RTR 
- -t 0.111058823 -s 20 -d -1 -p undefined -e 20 -c 2 -a 0 -i 0 -k RTR
h -t 0.111058823 -s 20 -d -1 -p undefined -e 20 -c 2 -a 0 -i 0 -k RTR
r -t 0.111922990 -s 19 -d -1 -p undefined -e 20 -c 2 -a 0 -i 0 -k RTR
r -t 0.111922990 -s 16 -d -1 -p undefined -e 20 -c 2 -a 0 -i 0 -k RTR
r -t 0.111923009 -s 23 -d -1 -p undefined -e 20 -c 2 -a 0 -i 0 -k RTR
+ -t 0.111923009 -s 23 -d -1 -p undefined -e 20 -c 2 -a 0 -i 0 -k RTR 
- -t 0.111923009 -s 23 -d -1 -p undefined -e 20 -c 2 -a 0 -i 0 -k RTR
h -t 0.111923009 -s 23 -d -1 -p undefined -e 20 -c 2 -a 0 -i 0 -k RTR
r -t 0.111923059 -s 15 -d -1 -p undefined -e 20 -c 2 -a 0 -i 0 -k RTR
r -t 0.112697156 -s 18 -d -1 -p undefined -e 20 -c 2 -a 0 -i 0 -k RTR
r -t 0.112697156 -s 15 -d -1 -p undefined -e 20 -c 2 -a 0 -i 0 -k RTR
r -t 0.112697156 -s 20 -d -1 -p undefined -e 20 -c 2 -a 0 -i 0 -k RTR
r -t 0.112697176 -s 22 -d -1 -p undefined -e 20 -c 2 -a 0 -i 0 -k RTR
+ -t 0.112697176 -s 22 -d -1 -p undefined -e 20 -c 2 -a 0 -i 0 -k RTR 
- -t 0.112697176 -s 22 -d -1 -p undefined -e 20 -c 2 -a 0 -i 0 -k RTR
h -t 0.112697176 -s 22 -d -1 -p undefined -e 20 -c 2 -a 0 -i 0 -k RTR
+ -t 0.112697176 -s 22 -d -1 -p undefined -e 20 -c 2 -a 0 -i 0 -k RTR 
- -t 0.112697176 -s 22 -d -1 -p undefined -e 20 -c 2 -a 0 -i 0 -k RTR
h -t 0.112697176 -s 22 -d -1 -p undefined -e 20 -c 2 -a 0 -i 0 -k RTR
r -t 0.112697176 -s 23 -d -1 -p undefined -e 20 -c 2 -a 0 -i 0 -k RTR
r -t 0.112697225 -s 16 -d -1 -p undefined -e 20 -c 2 -a 0 -i 0 -k RTR
r -t 0.112697225 -s 14 -d -1 -p undefined -e 20 -c 2 -a 0 -i 0 -k RTR
r -t 0.113511392 -s 15 -d -1 -p undefined -e 20 -c 2 -a 0 -i 0 -k RTR
r -t 0.113511392 -s 12 -d -1 -p undefined -e 20 -c 2 -a 0 -i 0 -k RTR
r -t 0.113511392 -s 20 -d -1 -p undefined -e 20 -c 2 -a 0 -i 0 -k RTR
r -t 0.113511461 -s 11 -d -1 -p undefined -e 20 -c 2 -a 0 -i 0 -k RTR
r -t 0.113511461 -s 19 -d -1 -p undefined -e 20 -c 2 -a 0 -i 0 -k RTR
r -t 0.114225559 -s 11 -d -1 -p undefined -e 20 -c 2 -a 0 -i 0 -k RTR
r -t 0.114225559 -s 8 -d -1 -p undefined -e 20 -c 2 -a 0 -i 0 -k RTR
r -t 0.114225559 -s 16 -d -1 -p undefined -e 20 -c 2 -a 0 -i 0 -k RTR
r -t 0.114225628 -s 7 -d -1 -p undefined -e 20 -c 2 -a 0 -i 0 -k RTR
r -t 0.114225628 -s 15 -d -1 -p undefined -e 20 -c 2 -a 0 -i 0 -k RTR
r -t 0.116342534 -s 9 -d -1 -p undefined -e 20 -c 2 -a 0 -i 0 -k RTR
r -t 0.116342534 -s 14 -d -1 -p undefined -e 20 -c 2 -a 0 -i 0 -k RTR
r -t 0.116342534 -s 17 -d -1 -p undefined -e 20 -c 2 -a 0 -i 0 -k RTR
r -t 0.116342603 -s 10 -d -1 -p undefined -e 20 -c 2 -a 0 -i 0 -k RTR
r -t 0.116342603 -s 18 -d -1 -p undefined -e 20 -c 2 -a 0 -i 0 -k RTR
r -t 0.117441068 -s 22 -d -1 -p undefined -e 20 -c 2 -a 0 -i 0 -k RTR
r -t 0.117441088 -s 20 -d -1 -p undefined -e 20 -c 2 -a 0 -i 0 -k RTR
r -t 0.117441088 -s 19 -d -1 -p undefined -e 20 -c 2 -a 0 -i 0 -k RTR
r -t 0.118615235 -s 21 -d -1 -p undefined -e 20 -c 2 -a 0 -i 0 -k RTR
r -t 0.118615235 -s 23 -d -1 -p undefined -e 20 -c 2 -a 0 -i 0 -k RTR
r -t 0.118615254 -s 19 -d -1 -p undefined -e 20 -c 2 -a 0 -i 0 -k RTR
r -t 0.118615254 -s 18 -d -1 -p undefined -e 20 -c 2 -a 0 -i 0 -k RTR
+ -t 0.200000000 -s 0 -d -1 -p undefined -e 20 -c 2 -a 0 -i 0 -k RTR 
- -t 0.200000000 -s 0 -d -1 -p undefined -e 20 -c 2 -a 0 -i 0 -k RTR
h -t 0.200000000 -s 0 -d -1 -p undefined -e 20 -c 2 -a 0 -i 0 -k RTR
r -t 0.201004186 -s 2 -d -1 -p undefined -e 20 -c 2 -a 0 -i 0 -k RTR
+ -t 0.201004186 -s 2 -d -1 -p undefined -e 20 -c 2 -a 0 -i 0 -k RTR 
- -t 0.201004186 -s 2 -d -1 -p undefined -e 20 -c 2 -a 0 -i 0 -k RTR
h -t 0.201004186 -s 2 -d -1 -p undefined -e 20 -c 2 -a 0 -i 0 -k RTR
r -t 0.201004186 -s 3 -d -1 -p undefined -e 20 -c 2 -a 0 -i 0 -k RTR
+ -t 0.201004186 -s 3 -d -1 -p undefined -e 20 -c 2 -a 0 -i 0 -k RTR 
- -t 0.201004186 -s 3 -d -1 -p undefined -e 20 -c 2 -a 0 -i 0 -k RTR
h -t 0.201004186 -s 3 -d -1 -p undefined -e 20 -c 2 -a 0 -i 0 -k RTR
r -t 0.202008353 -s 1 -d -1 -p undefined -e 20 -c 2 -a 0 -i 0 -k RTR
+ -t 0.202008353 -s 1 -d -1 -p undefined -e 20 -c 2 -a 0 -i 0 -k RTR 
- -t 0.202008353 -s 1 -d -1 -p undefined -e 20 -c 2 -a 0 -i 0 -k RTR
h -t 0.202008353 -s 1 -d -1 -p undefined -e 20 -c 2 -a 0 -i 0 -k RTR
r -t 0.202008353 -s 3 -d -1 -p undefined -e 20 -c 2 -a 0 -i 0 -k RTR
r -t 0.202008353 -s 6 -d -1 -p undefined -e 20 -c 2 -a 0 -i 0 -k RTR
+ -t 0.202008353 -s 6 -d -1 -p undefined -e 20 -c 2 -a 0 -i 0 -k RTR 
- -t 0.202008353 -s 6 -d -1 -p undefined -e 20 -c 2 -a 0 -i 0 -k RTR
h -t 0.202008353 -s 6 -d -1 -p undefined -e 20 -c 2 -a 0 -i 0 -k RTR
r -t 0.202008373 -s 0 -d -1 -p undefined -e 20 -c 2 -a 0 -i 0 -k RTR
r -t 0.202008422 -s 5 -d -1 -p undefined -e 20 -c 2 -a 0 -i 0 -k RTR
+ -t 0.202008422 -s 5 -d -1 -p undefined -e 20 -c 2 -a 0 -i 0 -k RTR 
- -t 0.202008422 -s 5 -d -1 -p undefined -e 20 -c 2 -a 0 -i 0 -k RTR
h -t 0.202008422 -s 5 -d -1 -p undefined -e 20 -c 2 -a 0 -i 0 -k RTR
r -t 0.202008422 -s 7 -d -1 -p undefined -e 20 -c 2 -a 0 -i 0 -k RTR
+ -t 0.202008422 -s 7 -d -1 -p undefined -e 20 -c 2 -a 0 -i 0 -k RTR 
- -t 0.202008422 -s 7 -d -1 -p undefined -e 20 -c 2 -a 0 -i 0 -k RTR
h -t 0.202008422 -s 7 -d -1 -p undefined -e 20 -c 2 -a 0 -i 0 -k RTR
r -t 0.202882520 -s 2 -d -1 -p undefined -e 20 -c 2 -a 0 -i 0 -k RTR
r -t 0.202882520 -s 4 -d -1 -p undefined -e 20 -c 2 -a 0 -i 0 -k RTR
+ -t 0.202882520 -s 4 -d -1 -p undefined -e 20 -c 2 -a 0 -i 0 -k RTR 
- -t 0.202882520 -s 4 -d -1 -p undefined -e 20 -c 2 -a 0 -i 0 -k RTR
h -t 0.202882520 -s 4 -d -1 -p undefined -e 20 -c 2 -a 0 -i 0 -k RTR
r -t 0.202882520 -s 7 -d -1 -p undefined -e 20 -c 2 -a 0 -i 0 -k RTR
r -t 0.202882539 -s 0 -d -1 -p undefined -e 20 -c 2 -a 0 -i 0 -k RTR
r -t 0.202882589 -s 6 -d -1 -p undefined -e 20 -c 2 -a 0 -i 0 -k RTR
r -t 0.202882589 -s 8 -d -1 -p undefined -e 20 -c 2 -a 0 -i 0 -k RTR
+ -t 0.202882589 -s 8 -d -1 -p undefined -e 20 -c 2 -a 0 -i 0 -k RTR 
- -t 0.202882589 -s 8 -d -1 -p undefined -e 20 -c 2 -a 0 -i 0 -k RTR
h -t 0.202882589 -s 8 -d -1 -p undefined -e 20 -c 2 -a 0 -i 0 -k RTR
r -t 0.203606755 -s 7 -d -1 -p undefined -e 20 -c 2 -a 0 -i 0 -k RTR
r -t 0.203606755 -s 4 -d -1 -p undefined -e 20 -c 2 -a 0 -i 0 -k RTR
r -t 0.203606755 -s 12 -d -1 -p undefined -e 20 -c 2 -a 0 -i 0 -k RTR
+ -t 0.203606755 -s 12 -d -1 -p undefined -e 20 -c 2 -a 0 -i 0 -k RTR 
- -t 0.203606755 -s 12 -d -1 -p undefined -e 20 -c 2 -a 0 -i 0 -k RTR
h -t 0.203606755 -s 12 -d -1 -p undefined -e 20 -c 2 -a 0 -i 0 -k RTR
r -t 0.203606824 -s 3 -d -1 -p undefined -e 20 -c 2 -a 0 -i 0 -k RTR
r -t 0.203606824 -s 11 -d -1 -p undefined -e 20 -c 2 -a 0 -i 0 -k RTR
+ -t 0.203606824 -s 11 -d -1 -p undefined -e 20 -c 2 -a 0 -i 0 -k RTR 
- -t 0.203606824 -s 11 -d -1 -p undefined -e 20 -c 2 -a 0 -i 0 -k RTR
h -t 0.203606824 -s 11 -d -1 -p undefined -e 20 -c 2 -a 0 -i 0 -k RTR
r -t 0.204320922 -s 6 -d -1 -p undefined -e 20 -c 2 -a 0 -i 0 -k RTR
r -t 0.204320922 -s 3 -d -1 -p undefined -e 20 -c 2 -a 0 -i 0 -k RTR
r -t 0.204320922 -s 8 -d -1 -p undefined -e 20 -c 2 -a 0 -i 0 -k RTR
r -t 0.204320922 -s 11 -d -1 -p undefined -e 20 -c 2 -a 0 -i 0 -k RTR
r -t 0.204320991 -s 4 -d -1 -p undefined -e 20 -c 2 -a 0 -i 0 -k RTR
r -t 0.204320991 -s 2 -d -1 -p undefined -e 20 -c 2 -a 0 -i 0 -k RTR
r -t 0.204320991 -s 10 -d -1 -p undefined -e 20 -c 2 -a 0 -i 0 -k RTR
+ -t 0.204320991 -s 10 -d -1 -p undefined -e 20 -c 2 -a 0 -i 0 -k RTR 
- -t 0.204320991 -s 10 -d -1 -p undefined -e 20 -c 2 -a 0 -i 0 -k RTR
h -t 0.204320991 -s 10 -d -1 -p undefined -e 20 -c 2 -a 0 -i 0 -k RTR
r -t 0.204320991 -s 12 -d -1 -p undefined -e 20 -c 2 -a 0 -i 0 -k RTR
r -t 0.205135089 -s 5 -d -1 -p undefined -e 20 -c 2 -a 0 -i 0 -k RTR
r -t 0.205135089 -s 2 -d -1 -p undefined -e 20 -c 2 -a 0 -i 0 -k RTR
r -t 0.205135089 -s 7 -d -1 -p undefined -e 20 -c 2 -a 0 -i 0 -k RTR
r -t 0.205135089 -s 10 -d -1 -p undefined -e 20 -c 2 -a 0 -i 0 -k RTR
r -t 0.205135158 -s 3 -d -1 -p undefined -e 20 -c 2 -a 0 -i 0 -k RTR
r -t 0.205135158 -s 1 -d -1 -p undefined -e 20 -c 2 -a 0 -i 0 -k RTR
r -t 0.205135158 -s 9 -d -1 -p undefined -e 20 -c 2 -a 0 -i 0 -k RTR
+ -t 0.205135158 -s 9 -d -1 -p undefined -e 20 -c 2 -a 0 -i 0 -k RTR 
- -t 0.205135158 -s 9 -d -1 -p undefined -e 20 -c 2 -a 0 -i 0 -k RTR
h -t 0.205135158 -s 9 -d -1 -p undefined -e 20 -c 2 -a 0 -i 0 -k RTR
r -t 0.205135158 -s 11 -d -1 -p undefined -e 20 -c 2 -a 0 -i 0 -k RTR
r -t 0.205829255 -s 1 -d -1 -p undefined -e 20 -c 2 -a 0 -i 0 -k RTR
r -t 0.205829255 -s 6 -d -1 -p undefined -e 20 -c 2 -a 0 -i 0 -k RTR
r -t 0.205829255 -s 9 -d -1 -p undefined -e 20 -c 2 -a 0 -i 0 -k RTR
r -t 0.205829324 -s 2 -d -1 -p undefined -e 20 -c 2 -a 0 -i 0 -k RTR
r -t 0.205829324 -s 10 -d -1 -p undefined -e 20 -c 2 -a 0 -i 0 -k RTR
r -t 0.206563422 -s 2 -d -1 -p undefined -e 20 -c 2 -a 0 -i 0 -k RTR
r -t 0.206563422 -s 5 -d -1 -p undefined -e 20 -c 2 -a 0 -i 0 -k RTR
r -t 0.206563491 -s 6 -d -1 -p undefined -e 20 -c 2 -a 0 -i 0 -k RTR
r -t 0.207661755 -s 5 -d -1 -p undefined -e 20 -c 2 -a 0 -i 0 -k RTR
r -t 0.207661755 -s 10 -d -1 -p undefined -e 20 -c 2 -a 0 -i 0 -k RTR
r -t 0.207661755 -s 13 -d -1 -p undefined -e 20 -c 2 -a 0 -i 0 -k RTR
+ -t 0.207661755 -s 13 -d -1 -p undefined -e 20 -c 2 -a 0 -i 0 -k RTR 
- -t 0.207661755 -s 13 -d -1 -p undefined -e 20 -c 2 -a 0 -i 0 -k RTR
h -t 0.207661755 -s 13 -d -1 -p undefined -e 20 -c 2 -a 0 -i 0 -k RTR
r -t 0.207661824 -s 6 -d -1 -p undefined -e 20 -c 2 -a 0 -i 0 -k RTR
r -t 0.207661824 -s 14 -d -1 -p undefined -e 20 -c 2 -a 0 -i 0 -k RTR
+ -t 0.207661824 -s 14 -d -1 -p undefined -e 20 -c 2 -a 0 -i 0 -k RTR 
- -t 0.207661824 -s 14 -d -1 -p undefined -e 20 -c 2 -a 0 -i 0 -k RTR
h -t 0.207661824 -s 14 -d -1 -p undefined -e 20 -c 2 -a 0 -i 0 -k RTR
r -t 0.208505922 -s 9 -d -1 -p undefined -e 20 -c 2 -a 0 -i 0 -k RTR
r -t 0.208505922 -s 14 -d -1 -p undefined -e 20 -c 2 -a 0 -i 0 -k RTR
r -t 0.208505922 -s 17 -d -1 -p undefined -e 20 -c 2 -a 0 -i 0 -k RTR
+ -t 0.208505922 -s 17 -d -1 -p undefined -e 20 -c 2 -a 0 -i 0 -k RTR 
- -t 0.208505922 -s 17 -d -1 -p undefined -e 20 -c 2 -a 0 -i 0 -k RTR
h -t 0.208505922 -s 17 -d -1 -p undefined -e 20 -c 2 -a 0 -i 0 -k RTR
r -t 0.208505991 -s 10 -d -1 -p undefined -e 20 -c 2 -a 0 -i 0 -k RTR
r -t 0.208505991 -s 18 -d -1 -p undefined -e 20 -c 2 -a 0 -i 0 -k RTR
+ -t 0.208505991 -s 18 -d -1 -p undefined -e 20 -c 2 -a 0 -i 0 -k RTR 
- -t 0.208505991 -s 18 -d -1 -p undefined -e 20 -c 2 -a 0 -i 0 -k RTR
h -t 0.208505991 -s 18 -d -1 -p undefined -e 20 -c 2 -a 0 -i 0 -k RTR
r -t 0.209260089 -s 13 -d -1 -p undefined -e 20 -c 2 -a 0 -i 0 -k RTR
r -t 0.209260089 -s 10 -d -1 -p undefined -e 20 -c 2 -a 0 -i 0 -k RTR
r -t 0.209260089 -s 15 -d -1 -p undefined -e 20 -c 2 -a 0 -i 0 -k RTR
+ -t 0.209260089 -s 15 -d -1 -p undefined -e 20 -c 2 -a 0 -i 0 -k RTR 
- -t 0.209260089 -s 15 -d -1 -p undefined -e 20 -c 2 -a 0 -i 0 -k RTR
h -t 0.209260089 -s 15 -d -1 -p undefined -e 20 -c 2 -a 0 -i 0 -k RTR
r -t 0.209260089 -s 18 -d -1 -p undefined -e 20 -c 2 -a 0 -i 0 -k RTR
r -t 0.209260158 -s 11 -d -1 -p undefined -e 20 -c 2 -a 0 -i 0 -k RTR
r -t 0.209260158 -s 9 -d -1 -p undefined -e 20 -c 2 -a 0 -i 0 -k RTR
r -t 0.209260158 -s 17 -d -1 -p undefined -e 20 -c 2 -a 0 -i 0 -k RTR
r -t 0.209260158 -s 19 -d -1 -p undefined -e 20 -c 2 -a 0 -i 0 -k RTR
+ -t 0.209260158 -s 19 -d -1 -p undefined -e 20 -c 2 -a 0 -i 0 -k RTR 
- -t 0.209260158 -s 19 -d -1 -p undefined -e 20 -c 2 -a 0 -i 0 -k RTR
h -t 0.209260158 -s 19 -d -1 -p undefined -e 20 -c 2 -a 0 -i 0 -k RTR
r -t 0.209954255 -s 9 -d -1 -p undefined -e 20 -c 2 -a 0 -i 0 -k RTR
r -t 0.209954255 -s 6 -d -1 -p undefined -e 20 -c 2 -a 0 -i 0 -k RTR
r -t 0.209954255 -s 11 -d -1 -p undefined -e 20 -c 2 -a 0 -i 0 -k RTR
r -t 0.209954255 -s 14 -d -1 -p undefined -e 20 -c 2 -a 0 -i 0 -k RTR
r -t 0.209954324 -s 7 -d -1 -p undefined -e 20 -c 2 -a 0 -i 0 -k RTR
r -t 0.209954324 -s 5 -d -1 -p undefined -e 20 -c 2 -a 0 -i 0 -k RTR
r -t 0.209954324 -s 13 -d -1 -p undefined -e 20 -c 2 -a 0 -i 0 -k RTR
r -t 0.209954324 -s 15 -d -1 -p undefined -e 20 -c 2 -a 0 -i 0 -k RTR
r -t 0.210668422 -s 10 -d -1 -p undefined -e 20 -c 2 -a 0 -i 0 -k RTR
r -t 0.210668422 -s 7 -d -1 -p undefined -e 20 -c 2 -a 0 -i 0 -k RTR
r -t 0.210668422 -s 12 -d -1 -p undefined -e 20 -c 2 -a 0 -i 0 -k RTR
r -t 0.210668422 -s 15 -d -1 -p undefined -e 20 -c 2 -a 0 -i 0 -k RTR
r -t 0.210668491 -s 8 -d -1 -p undefined -e 20 -c 2 -a 0 -i 0 -k RTR
r -t 0.210668491 -s 6 -d -1 -p undefined -e 20 -c 2 -a 0 -i 0 -k RTR
r -t 0.210668491 -s 14 -d -1 -p undefined -e 20 -c 2 -a 0 -i 0 -k RTR
r -t 0.210668491 -s 16 -d -1 -p undefined -e 20 -c 2 -a 0 -i 0 -k RTR
+ -t 0.210668491 -s 16 -d -1 -p undefined -e 20 -c 2 -a 0 -i 0 -k RTR 
- -t 0.210668491 -s 16 -d -1 -p undefined -e 20 -c 2 -a 0 -i 0 -k RTR
h -t 0.210668491 -s 16 -d -1 -p undefined -e 20 -c 2 -a 0 -i 0 -k RTR
r -t 0.211362589 -s 14 -d -1 -p undefined -e 20 -c 2 -a 0 -i 0 -k RTR
r -t 0.211362589 -s 11 -d -1 -p undefined -e 20 -c 2 -a 0 -i 0 -k RTR
r -t 0.211362589 -s 16 -d -1 -p undefined -e 20 -c 2 -a 0 -i 0 -k RTR
r -t 0.211362589 -s 19 -d -1 -p undefined -e 20 -c 2 -a 0 -i 0 -k RTR
r -t 0.211362658 -s 12 -d -1 -p undefined -e 20 -c 2 -a 0 -i 0 -k RTR
r -t 0.211362658 -s 10 -d -1 -p undefined -e 20 -c 2 -a 0 -i 0 -k RTR
r -t 0.211362658 -s 18 -d -1 -p undefined -e 20 -c 2 -a 0 -i 0 -k RTR
r -t 0.211362658 -s 20 -d -1 -p undefined -e 20 -c 2 -a 0 -i 0 -k RTR
+ -t 0.211362658 -s 20 -d -1 -p undefined -e 20 -c 2 -a 0 -i 0 -k RTR 
- -t 0.211362658 -s 20 -d -1 -p undefined -e 20 -c 2 -a 0 -i 0 -k RTR
h -t 0.211362658 -s 20 -d -1 -p undefined -e 20 -c 2 -a 0 -i 0 -k RTR
r -t 0.212096755 -s 15 -d -1 -p undefined -e 20 -c 2 -a 0 -i 0 -k RTR
r -t 0.212096755 -s 12 -d -1 -p undefined -e 20 -c 2 -a 0 -i 0 -k RTR
r -t 0.212096755 -s 20 -d -1 -p undefined -e 20 -c 2 -a 0 -i 0 -k RTR
r -t 0.212096824 -s 11 -d -1 -p undefined -e 20 -c 2 -a 0 -i 0 -k RTR
r -t 0.212096824 -s 19 -d -1 -p undefined -e 20 -c 2 -a 0 -i 0 -k RTR
r -t 0.212790922 -s 11 -d -1 -p undefined -e 20 -c 2 -a 0 -i 0 -k RTR
r -t 0.212790922 -s 8 -d -1 -p undefined -e 20 -c 2 -a 0 -i 0 -k RTR
r -t 0.212790922 -s 16 -d -1 -p undefined -e 20 -c 2 -a 0 -i 0 -k RTR
r -t 0.212790991 -s 7 -d -1 -p undefined -e 20 -c 2 -a 0 -i 0 -k RTR
r -t 0.212790991 -s 15 -d -1 -p undefined -e 20 -c 2 -a 0 -i 0 -k RTR
r -t 0.213869523 -s 13 -d -1 -p undefined -e 20 -c 2 -a 0 -i 0 -k RTR
r -t 0.213869523 -s 18 -d -1 -p undefined -e 20 -c 2 -a 0 -i 0 -k RTR
r -t 0.213869543 -s 21 -d -1 -p undefined -e 20 -c 2 -a 0 -i 0 -k RTR
+ -t 0.213869543 -s 21 -d -1 -p undefined -e 20 -c 2 -a 0 -i 0 -k RTR 
- -t 0.213869543 -s 21 -d -1 -p undefined -e 20 -c 2 -a 0 -i 0 -k RTR
h -t 0.213869543 -s 21 -d -1 -p undefined -e 20 -c 2 -a 0 -i 0 -k RTR
r -t 0.213869592 -s 14 -d -1 -p undefined -e 20 -c 2 -a 0 -i 0 -k RTR
r -t 0.214663690 -s 17 -d -1 -p undefined -e 20 -c 2 -a 0 -i 0 -k RTR
r -t 0.214663690 -s 14 -d -1 -p undefined -e 20 -c 2 -a 0 -i 0 -k RTR
r -t 0.214663690 -s 19 -d -1 -p undefined -e 20 -c 2 -a 0 -i 0 -k RTR
r -t 0.214663709 -s 21 -d -1 -p undefined -e 20 -c 2 -a 0 -i 0 -k RTR
r -t 0.214663709 -s 22 -d -1 -p undefined -e 20 -c 2 -a 0 -i 0 -k RTR
+ -t 0.214663709 -s 22 -d -1 -p undefined -e 20 -c 2 -a 0 -i 0 -k RTR 
- -t 0.214663709 -s 22 -d -1 -p undefined -e 20 -c 2 -a 0 -i 0 -k RTR
h -t 0.214663709 -s 22 -d -1 -p undefined -e 20 -c 2 -a 0 -i 0 -k RTR
r -t 0.214663759 -s 15 -d -1 -p undefined -e 20 -c 2 -a 0 -i 0 -k RTR
r -t 0.214663759 -s 13 -d -1 -p undefined -e 20 -c 2 -a 0 -i 0 -k RTR
r -t 0.215557856 -s 18 -d -1 -p undefined -e 20 -c 2 -a 0 -i 0 -k RTR
r -t 0.215557856 -s 15 -d -1 -p undefined -e 20 -c 2 -a 0 -i 0 -k RTR
r -t 0.215557856 -s 20 -d -1 -p undefined -e 20 -c 2 -a 0 -i 0 -k RTR
r -t 0.215557876 -s 22 -d -1 -p undefined -e 20 -c 2 -a 0 -i 0 -k RTR
r -t 0.215557876 -s 23 -d -1 -p undefined -e 20 -c 2 -a 0 -i 0 -k RTR
+ -t 0.215557876 -s 23 -d -1 -p undefined -e 20 -c 2 -a 0 -i 0 -k RTR 
- -t 0.215557876 -s 23 -d -1 -p undefined -e 20 -c 2 -a 0 -i 0 -k RTR
h -t 0.215557876 -s 23 -d -1 -p undefined -e 20 -c 2 -a 0 -i 0 -k RTR
+ -t 0.215557876 -s 23 -d -1 -p undefined -e 20 -c 2 -a 0 -i 0 -k RTR 
- -t 0.215557876 -s 23 -d -1 -p undefined -e 20 -c 2 -a 0 -i 0 -k RTR
h -t 0.215557876 -s 23 -d -1 -p undefined -e 20 -c 2 -a 0 -i 0 -k RTR
r -t 0.215557925 -s 16 -d -1 -p undefined -e 20 -c 2 -a 0 -i 0 -k RTR
r -t 0.215557925 -s 14 -d -1 -p undefined -e 20 -c 2 -a 0 -i 0 -k RTR
r -t 0.216292023 -s 19 -d -1 -p undefined -e 20 -c 2 -a 0 -i 0 -k RTR
r -t 0.216292023 -s 16 -d -1 -p undefined -e 20 -c 2 -a 0 -i 0 -k RTR
r -t 0.216292043 -s 23 -d -1 -p undefined -e 20 -c 2 -a 0 -i 0 -k RTR
r -t 0.216292092 -s 15 -d -1 -p undefined -e 20 -c 2 -a 0 -i 0 -k RTR
r -t 0.217006209 -s 22 -d -1 -p undefined -e 20 -c 2 -a 0 -i 0 -k RTR
r -t 0.217006229 -s 20 -d -1 -p undefined -e 20 -c 2 -a 0 -i 0 -k RTR
r -t 0.217006229 -s 19 -d -1 -p undefined -e 20 -c 2 -a 0 -i 0 -k RTR
r -t 0.217760376 -s 21 -d -1 -p undefined -e 20 -c 2 -a 0 -i 0 -k RTR
r -t 0.217760376 -s 23 -d -1 -p undefined -e 20 -c 2 -a 0 -i 0 -k RTR
r -t 0.217760396 -s 19 -d -1 -p undefined -e 20 -c 2 -a 0 -i 0 -k RTR
r -t 0.217760396 -s 18 -d -1 -p undefined -e 20 -c 2 -a 0 -i 0 -k RTR
r -t 0.218454543 -s 22 -d -1 -p undefined -e 20 -c 2 -a 0 -i 0 -k RTR
r -t 0.218454562 -s 18 -d -1 -p undefined -e 20 -c 2 -a 0 -i 0 -k RTR
r -t 0.218454562 -s 17 -d -1 -p undefined -e 20 -c 2 -a 0 -i 0 -k RTR
r -t 0.219513474 -s 3 -d -1 -p undefined -e 20 -c 2 -a 0 -i 0 -k RTR
r -t 0.219513474 -s 8 -d -1 -p undefined -e 20 -c 2 -a 0 -i 0 -k RTR
r -t 0.219513543 -s 7 -d -1 -p undefined -e 20 -c 2 -a 0 -i 0 -k RTR
r -t 0.220652312 -s 22 -d -1 -p undefined -e 20 -c 2 -a 0 -i 0 -k RTR
+ -t 0.220652312 -s 22 -d -1 -p undefined -e 20 -c 2 -a 0 -i 0 -k RTR 
- -t 0.220652312 -s 22 -d -1 -p undefined -e 20 -c 2 -a 0 -i 0 -k RTR
h -t 0.220652312 -s 22 -d -1 -p undefined -e 20 -c 2 -a 0 -i 0 -k RTR
r -t 0.220652331 -s 20 -d -1 -p undefined -e 20 -c 2 -a 0 -i 0 -k RTR
r -t 0.220652331 -s 19 -d -1 -p undefined -e 20 -c 2 -a 0 -i 0 -k RTR
r -t 0.221496478 -s 21 -d -1 -p undefined -e 20 -c 2 -a 0 -i 0 -k RTR
r -t 0.221496478 -s 23 -d -1 -p undefined -e 20 -c 2 -a 0 -i 0 -k RTR
r -t 0.221496498 -s 19 -d -1 -p undefined -e 20 -c 2 -a 0 -i 0 -k RTR
r -t 0.221496498 -s 18 -d -1 -p undefined -e 20 -c 2 -a 0 -i 0 -k RTR
+ -t 0.300000000 -s 0 -d -1 -p undefined -e 20 -c 2 -a 0 -i 0 -k RTR 
- -t 0.300000000 -s 0 -d -1 -p undefined -e 20 -c 2 -a 0 -i 0 -k RTR
h -t 0.300000000 -s 0 -d -1 -p undefined -e 20 -c 2 -a 0 -i 0 -k RTR
r -t 0.300944186 -s 2 -d -1 -p undefined -e 20 -c 2 -a 0 -i 0 -k RTR
+ -t 0.300944186 -s 2 -d -1 -p undefined -e 20 -c 2 -a 0 -i 0 -k RTR 
- -t 0.300944186 -s 2 -d -1 -p undefined -e 20 -c 2 -a 0 -i 0 -k RTR
h -t 0.300944186 -s 2 -d -1 -p undefined -e 20 -c 2 -a 0 -i 0 -k RTR
r -t 0.300944186 -s 3 -d -1 -p undefined -e 20 -c 2 -a 0 -i 0 -k RTR
+ -t 0.300944186 -s 3 -d -1 -p undefined -e 20 -c 2 -a 0 -i 0 -k RTR 
- -t 0.300944186 -s 3 -d -1 -p undefined -e 20 -c 2 -a 0 -i 0 -k RTR
h -t 0.300944186 -s 3 -d -1 -p undefined -e 20 -c 2 -a 0 -i 0 -k RTR