s 0.100000000 _0_ RTR  --- 0 undefined 20 [0 0 0 0] ------- [0:255 -1:255 32 0] 
r 0.101184186 _2_ RTR  --- 0 undefined 20 [0 ffffffff 0 800] ------- [0:255 -1:255 32 0] 
f 0.101184186 _2_ RTR  --- 0 undefined 20 [0 ffffffff 0 800] ------- [0:255 -1:255 32 0] 
r 0.101184186 _3_ RTR  --- 0 undefined 20 [0 ffffffff 0 800] ------- [0:255 -1:255 32 0] 
f 0.101184186 _3_ RTR  --- 0 undefined 20 [0 ffffffff 0 800] ------- [0:255 -1:255 32 0] 
r 0.102208353 _2_ RTR  --- 0 undefined 20 [0 ffffffff 3 800] ------- [0:255 -1:255 32 0] 
r 0.102208353 _4_ RTR  --- 0 undefined 20 [0 ffffffff 3 800] ------- [0:255 -1:255 32 0] 
f 0.102208353 _4_ RTR  --- 0 undefined 20 [0 ffffffff 3 800] ------- [0:255 -1:255 32 0] 
r 0.102208353 _7_ RTR  --- 0 undefined 20 [0 ffffffff 3 800] ------- [0:255 -1:255 32 0] 
f 0.102208353 _7_ RTR  --- 0 undefined 20 [0 ffffffff 3 800] ------- [0:255 -1:255 32 0] 
r 0.102208373 _0_ RTR  --- 0 undefined 20 [0 ffffffff 3 800] ------- [0:255 -1:255 32 0] 
r 0.102208422 _6_ RTR  --- 0 undefined 20 [0 ffffffff 3 800] ------- [0:255 -1:255 32 0] 
f 0.102208422 _6_ RTR  --- 0 undefined 20 [0 ffffffff 3 800] ------- [0:255 -1:255 32 0] 
r 0.102208422 _8_ RTR  --- 0 undefined 20 [0 ffffffff 3 800] ------- [0:255 -1:255 32 0] 
f 0.102208422 _8_ RTR  --- 0 undefined 20 [0 ffffffff 3 800] ------- [0:255 -1:255 32 0] 
r 0.102932520 _3_ RTR  --- 0 undefined 20 [0 ffffffff 4 800] ------- [0:255 -1:255 32 0] 
r 0.102932520 _8_ RTR  --- 0 undefined 20 [0 ffffffff 4 800] ------- [0:255 -1:255 32 0] 
r 0.102932589 _7_ RTR  --- 0 undefined 20 [0 ffffffff 4 800] ------- [0:255 -1:255 32 0] 
r 0.103766755 _6_ RTR  --- 0 undefined 20 [0 ffffffff 7 800] ------- [0:255 -1:255 32 0] 
r 0.103766755 _3_ RTR  --- 0 undefined 20 [0 ffffffff 7 800] ------- [0:255 -1:255 32 0] 
r 0.103766755 _8_ RTR  --- 0 undefined 20 [0 ffffffff 7 800] ------- [0:255 -1:255 32 0] 
r 0.103766755 _11_ RTR  --- 0 undefined 20 [0 ffffffff 7 800] ------- [0:255 -1:255 32 0] 
f 0.103766755 _11_ RTR  --- 0 undefined 20 [0 ffffffff 7 800] ------- [0:255 -1:255 32 0] 
r 0.103766824 _4_ RTR  --- 0 undefined 20 [0 ffffffff 7 800] ------- [0:255 -1:255 32 0] 
r 0.103766824 _2_ RTR  --- 0 undefined 20 [0 ffffffff 7 800] ------- [0:255 -1:255 32 0] 
r 0.103766824 _10_ RTR  --- 0 undefined 20 [0 ffffffff 7 800] ------- [0:255 -1:255 32 0] 
f 0.103766824 _10_ RTR  --- 0 undefined 20 [0 ffffffff 7 800] ------- [0:255 -1:255 32 0] 
r 0.103766824 _12_ RTR  --- 0 undefined 20 [0 ffffffff 7 800] ------- [0:255 -1:255 32 0] 
f 0.103766824 _12_ RTR  --- 0 undefined 20 [0 ffffffff 7 800] ------- [0:255 -1:255 32 0] 
r 0.104520922 _7_ RTR  --- 0 undefined 20 [0 ffffffff 8 800] ------- [0:255 -1:255 32 0] 
r 0.104520922 _4_ RTR  --- 0 undefined 20 [0 ffffffff 8 800] ------- [0:255 -1:255 32 0] 
r 0.104520922 _12_ RTR  --- 0 undefined 20 [0 ffffffff 8 800] ------- [0:255 -1:255 32 0] 
r 0.104520991 _3_ RTR  --- 0 undefined 20 [0 ffffffff 8 800] ------- [0:255 -1:255 32 0] 
r 0.104520991 _11_ RTR  --- 0 undefined 20 [0 ffffffff 8 800] ------- [0:255 -1:255 32 0] 
r 0.105415158 _10_ RTR  --- 0 undefined 20 [0 ffffffff b 800] ------- [0:255 -1:255 32 0] 
r 0.105415158 _7_ RTR  --- 0 undefined 20 [0 ffffffff b 800] ------- [0:255 -1:255 32 0] 
r 0.105415158 _12_ RTR  --- 0 undefined 20 [0 ffffffff b 800] ------- [0:255 -1:255 32 0] 
r 0.105415158 _15_ RTR  --- 0 undefined 20 [0 ffffffff b 800] ------- [0:255 -1:255 32 0] 
f 0.105415158 _15_ RTR  --- 0 undefined 20 [0 ffffffff b 800] ------- [0:255 -1:255 32 0] 
r 0.105415227 _8_ RTR  --- 0 undefined 20 [0 ffffffff b 800] ------- [0:255 -1:255 32 0] 
r 0.105415227 _6_ RTR  --- 0 undefined 20 [0 ffffffff b 800] ------- [0:255 -1:255 32 0] 
r 0.105415227 _14_ RTR  --- 0 undefined 20 [0 ffffffff b 800] ------- [0:255 -1:255 32 0] 
f 0.105415227 _14_ RTR  --- 0 undefined 20 [0 ffffffff b 800] ------- [0:255 -1:255 32 0] 
r 0.105415227 _16_ RTR  --- 0 undefined 20 [0 ffffffff b 800] ------- [0:255 -1:255 32 0] 
f 0.105415227 _16_ RTR  --- 0 undefined 20 [0 ffffffff b 800] ------- [0:255 -1:255 32 0] 
r 0.106109324 _9_ RTR  --- 0 undefined 20 [0 ffffffff a 800] ------- [0:255 -1:255 32 0] 
f 0.106109324 _9_ RTR  --- 0 undefined 20 [0 ffffffff a 800] ------- [0:255 -1:255 32 0] 
r 0.106109324 _6_ RTR  --- 0 undefined 20 [0 ffffffff a 800] ------- [0:255 -1:255 32 0] 
r 0.106109324 _11_ RTR  --- 0 undefined 20 [0 ffffffff a 800] ------- [0:255 -1:255 32 0] 
r 0.106109324 _14_ RTR  --- 0 undefined 20 [0 ffffffff a 800] ------- [0:255 -1:255 32 0] 
r 0.106109393 _7_ RTR  --- 0 undefined 20 [0 ffffffff a 800] ------- [0:255 -1:255 32 0] 
r 0.106109393 _5_ RTR  --- 0 undefined 20 [0 ffffffff a 800] ------- [0:255 -1:255 32 0] 
f 0.106109393 _5_ RTR  --- 0 undefined 20 [0 ffffffff a 800] ------- [0:255 -1:255 32 0] 
r 0.106109393 _13_ RTR  --- 0 undefined 20 [0 ffffffff a 800] ------- [0:255 -1:255 32 0] 
f 0.106109393 _13_ RTR  --- 0 undefined 20 [0 ffffffff a 800] ------- [0:255 -1:255 32 0] 
r 0.106109393 _15_ RTR  --- 0 undefined 20 [0 ffffffff a 800] ------- [0:255 -1:255 32 0] 
r 0.106883491 _5_ RTR  --- 0 undefined 20 [0 ffffffff 6 800] ------- [0:255 -1:255 32 0] 
r 0.106883491 _2_ RTR  --- 0 undefined 20 [0 ffffffff 6 800] ------- [0:255 -1:255 32 0] 
r 0.106883491 _7_ RTR  --- 0 undefined 20 [0 ffffffff 6 800] ------- [0:255 -1:255 32 0] 
r 0.106883491 _10_ RTR  --- 0 undefined 20 [0 ffffffff 6 800] ------- [0:255 -1:255 32 0] 
r 0.106883560 _3_ RTR  --- 0 undefined 20 [0 ffffffff 6 800] ------- [0:255 -1:255 32 0] 
r 0.106883560 _1_ RTR  --- 0 undefined 20 [0 ffffffff 6 800] ------- [0:255 -1:255 32 0] 
f 0.106883560 _1_ RTR  --- 0 undefined 20 [0 ffffffff 6 800] ------- [0:255 -1:255 32 0] 
r 0.106883560 _9_ RTR  --- 0 undefined 20 [0 ffffffff 6 800] ------- [0:255 -1:255 32 0] 
r 0.106883560 _11_ RTR  --- 0 undefined 20 [0 ffffffff 6 800] ------- [0:255 -1:255 32 0] 
r 0.107697658 _1_ RTR  --- 0 undefined 20 [0 ffffffff 2 800] ------- [0:255 -1:255 32 0] 
r 0.107697658 _3_ RTR  --- 0 undefined 20 [0 ffffffff 2 800] ------- [0:255 -1:255 32 0] 
r 0.107697658 _6_ RTR  --- 0 undefined 20 [0 ffffffff 2 800] ------- [0:255 -1:255 32 0] 
r 0.107697677 _0_ RTR  --- 0 undefined 20 [0 ffffffff 2 800] ------- [0:255 -1:255 32 0] 
r 0.107697727 _5_ RTR  --- 0 undefined 20 [0 ffffffff 2 800] ------- [0:255 -1:255 32 0] 
r 0.107697727 _7_ RTR  --- 0 undefined 20 [0 ffffffff 2 800] ------- [0:255 -1:255 32 0] 
r 0.108391893 _1_ RTR  --- 0 undefined 20 [0 ffffffff 5 800] ------- [0:255 -1:255 32 0] 
r 0.108391893 _6_ RTR  --- 0 undefined 20 [0 ffffffff 5 800] ------- [0:255 -1:255 32 0] 
r 0.108391893 _9_ RTR  --- 0 undefined 20 [0 ffffffff 5 800] ------- [0:255 -1:255 32 0] 
r 0.108391962 _2_ RTR  --- 0 undefined 20 [0 ffffffff 5 800] ------- [0:255 -1:255 32 0] 
r 0.108391962 _10_ RTR  --- 0 undefined 20 [0 ffffffff 5 800] ------- [0:255 -1:255 32 0] 
r 0.109206060 _13_ RTR  --- 0 undefined 20 [0 ffffffff 9 800] ------- [0:255 -1:255 32 0] 
r 0.109206129 _14_ RTR  --- 0 undefined 20 [0 ffffffff 9 800] ------- [0:255 -1:255 32 0] 
r 0.110304587 _13_ RTR  --- 0 undefined 20 [0 ffffffff e 800] ------- [0:255 -1:255 32 0] 
r 0.110304587 _10_ RTR  --- 0 undefined 20 [0 ffffffff e 800] ------- [0:255 -1:255 32 0] 
r 0.110304587 _15_ RTR  --- 0 undefined 20 [0 ffffffff e 800] ------- [0:255 -1:255 32 0] 
r 0.110304587 _18_ RTR  --- 0 undefined 20 [0 ffffffff e 800] ------- [0:255 -1:255 32 0] 
f 0.110304587 _18_ RTR  --- 0 undefined 20 [0 ffffffff e 800] ------- [0:255 -1:255 32 0] 
r 0.110304656 _11_ RTR  --- 0 undefined 20 [0 ffffffff e 800] ------- [0:255 -1:255 32 0] 
r 0.110304656 _9_ RTR  --- 0 undefined 20 [0 ffffffff e 800] ------- [0:255 -1:255 32 0] 
r 0.110304656 _17_ RTR  --- 0 undefined 20 [0 ffffffff e 800] ------- [0:255 -1:255 32 0] 
f 0.110304656 _17_ RTR  --- 0 undefined 20 [0 ffffffff e 800] ------- [0:255 -1:255 32 0] 
r 0.110304656 _19_ RTR  --- 0 undefined 20 [0 ffffffff e 800] ------- [0:255 -1:255 32 0] 
f 0.110304656 _19_ RTR  --- 0 undefined 20 [0 ffffffff e 800] ------- [0:255 -1:255 32 0] 
r 0.111058754 _14_ RTR  --- 0 undefined 20 [0 ffffffff f 800] ------- [0:255 -1:255 32 0] 
r 0.111058754 _11_ RTR  --- 0 undefined 20 [0 ffffffff f 800] ------- [0:255 -1:255 32 0] 
r 0.111058754 _16_ RTR  --- 0 undefined 20 [0 ffffffff f 800] ------- [0:255 -1:255 32 0] 
r 0.111058754 _19_ RTR  --- 0 undefined 20 [0 ffffffff f 800] ------- [0:255 -1:255 32 0] 
r 0.111058823 _12_ RTR  --- 0 undefined 20 [0 ffffffff f 800] ------- [0:255 -1:255 32 0] 
r 0.111058823 _10_ RTR  --- 0 undefined 20 [0 ffffffff f 800] ------- [0:255 -1:255 32 0] 
r 0.111058823 _18_ RTR  --- 0 undefined 20 [0 ffffffff f 800] ------- [0:255 -1:255 32 0] 
r 0.111058823 _20_ RTR  --- 0 undefined 20 [0 ffffffff f 800] ------- [0:255 -1:255 32 0] 
f 0.111058823 _20_ RTR  --- 0 undefined 20 [0 ffffffff f 800] ------- [0:255 -1:255 32 0] 
r 0.111922990 _19_ RTR  --- 0 undefined 20 [0 ffffffff 14 800] ------- [0:255 -1:255 32 0] 
r 0.111922990 _16_ RTR  --- 0 undefined 20 [0 ffffffff 14 800] ------- [0:255 -1:255 32 0] 
r 0.111923009 _23_ RTR  --- 0 undefined 20 [0 ffffffff 14 800] ------- [0:255 -1:255 32 0] 
f 0.111923009 _23_ RTR  --- 0 undefined 20 [0 ffffffff 14 800] ------- [0:255 -1:255 32 0] 
r 0.111923059 _15_ RTR  --- 0 undefined 20 [0 ffffffff 14 800] ------- [0:255 -1:255 32 0] 
r 0.112697156 _18_ RTR  --- 0 undefined 20 [0 ffffffff 13 800] ------- [0:255 -1:255 32 0] 
r 0.112697156 _15_ RTR  --- 0 undefined 20 [0 ffffffff 13 800] ------- [0:255 -1:255 32 0] 
r 0.112697156 _20_ RTR  --- 0 undefined 20 [0 ffffffff 13 800] ------- [0:255 -1:255 32 0] 
r 0.112697176 _22_ RTR  --- 0 undefined 20 [0 ffffffff 13 800] ------- [0:255 -1:255 32 0] 
f 0.112697176 _22_ RTR  --- 0 undefined 20 [0 ffffffff 13 800] ------- [0:255 -1:255 32 0] 
s 0.112697176 _22_ RTR  --- 0 undefined 20 [0 0 0 0] ------- [22:255 -1:255 32 0] 
r 0.112697176 _23_ RTR  --- 0 undefined 20 [0 ffffffff 13 800] ------- [0:255 -1:255 32 0] 
r 0.112697225 _16_ RTR  --- 0 undefined 20 [0 ffffffff 13 800] ------- [0:255 -1:255 32 0] 
r 0.112697225 _14_ RTR  --- 0 undefined 20 [0 ffffffff 13 800] ------- [0:255 -1:255 32 0] 
r 0.113511392 _15_ RTR  --- 0 undefined 20 [0 ffffffff 10 800] ------- [0:255 -1:255 32 0] 
r 0.113511392 _12_ RTR  --- 0 undefined 20 [0 ffffffff 10 800] ------- [0:255 -1:255 32 0] 
r 0.113511392 _20_ RTR  --- 0 undefined 20 [0 ffffffff 10 800] ------- [0:255 -1:255 32 0] 
r 0.113511461 _11_ RTR  --- 0 undefined 20 [0 ffffffff 10 800] ------- [0:255 -1:255 32 0] 
r 0.113511461 _19_ RTR  --- 0 undefined 20 [0 ffffffff 10 800] ------- [0:255 -1:255 32 0] 
r 0.114225559 _11_ RTR  --- 0 undefined 20 [0 ffffffff c 800] ------- [0:255 -1:255 32 0] 
r 0.114225559 _8_ RTR  --- 0 undefined 20 [0 ffffffff c 800] ------- [0:255 -1:255 32 0] 
r 0.114225559 _16_ RTR  --- 0 undefined 20 [0 ffffffff c 800] ------- [0:255 -1:255 32 0] 
r 0.114225628 _7_ RTR  --- 0 undefined 20 [0 ffffffff c 800] ------- [0:255 -1:255 32 0] 
r 0.114225628 _15_ RTR  --- 0 undefined 20 [0 ffffffff c 800] ------- [0:255 -1:255 32 0] 
r 0.116342534 _9_ RTR  --- 0 undefined 20 [0 ffffffff d 800] ------- [0:255 -1:255 32 0] 
r 0.116342534 _14_ RTR  --- 0 undefined 20 [0 ffffffff d 800] ------- [0:255 -1:255 32 0] 
r 0.116342534 _17_ RTR  --- 0 undefined 20 [0 ffffffff d 800] ------- [0:255 -1:255 32 0] 
r 0.116342603 _10_ RTR  --- 0 undefined 20 [0 ffffffff d 800] ------- [0:255 -1:255 32 0] 
r 0.116342603 _18_ RTR  --- 0 undefined 20 [0 ffffffff d 800] ------- [0:255 -1:255 32 0] 
r 0.117441068 _22_ RTR  --- 0 undefined 20 [0 ffffffff 17 800] ------- [0:255 -1:255 32 0] 
r 0.117441088 _20_ RTR  --- 0 undefined 20 [0 ffffffff 17 800] ------- [0:255 -1:255 32 0] 
r 0.117441088 _19_ RTR  --- 0 undefined 20 [0 ffffffff 17 800] ------- [0:255 -1:255 32 0] 
r 0.118615235 _21_ RTR  --- 0 undefined 20 [0 ffffffff 16 800] ------- [22:255 -1:255 32 0] 
r 0.118615235 _23_ RTR  --- 0 undefined 20 [0 ffffffff 16 800] ------- [22:255 -1:255 32 0] 
r 0.118615254 _19_ RTR  --- 0 undefined 20 [0 ffffffff 16 800] ------- [22:255 -1:255 32 0] 
r 0.118615254 _18_ RTR  --- 0 undefined 20 [0 ffffffff 16 800] ------- [22:255 -1:255 32 0] 
s 0.200000000 _0_ RTR  --- 0 undefined 20 [0 0 0 0] ------- [0:255 -1:255 32 0] 
r 0.201004186 _2_ RTR  --- 0 undefined 20 [0 ffffffff 0 800] ------- [0:255 -1:255 32 0] 
f 0.201004186 _2_ RTR  --- 0 undefined 20 [0 ffffffff 0 800] ------- [0:255 -1:255 32 0] 
r 0.201004186 _3_ RTR  --- 0 undefined 20 [0 ffffffff 0 800] ------- [0:255 -1:255 32 0] 
f 0.201004186 _3_ RTR  --- 0 undefined 20 [0 ffffffff 0 800] ------- [0:255 -1:255 32 0] 
r 0.202008353 _1_ RTR  --- 0 undefined 20 [0 ffffffff 2 800] ------- [0:255 -1:255 32 0] 
f 0.202008353 _1_ RTR  --- 0 undefined 20 [0 ffffffff 2 800] ------- [0:255 -1:255 32 0] 
r 0.202008353 _3_ RTR  --- 0 undefined 20 [0 ffffffff 2 800] ------- [0:255 -1:255 32 0] 
r 0.202008353 _6_ RTR  --- 0 undefined 20 [0 ffffffff 2 800] ------- [0:255 -1:255 32 0] 
f 0.202008353 _6_ RTR  --- 0 undefined 20 [0 ffffffff 2 800] ------- [0:255 -1:255 32 0] 
r 0.202008373 _0_ RTR  --- 0 undefined 20 [0 ffffffff 2 800] ------- [0:255 -1:255 32 0] 
r 0.202008422 _5_ RTR  --- 0 undefined 20 [0 ffffffff 2 800] ------- [0:255 -1:255 32 0] 
f 0.202008422 _5_ RTR  --- 0 undefined 20 [0 ffffffff 2 800] ------- [0:255 -1:255 32 0] 
r 0.202008422 _7_ RTR  --- 0 undefined 20 [0 ffffffff 2 800] ------- [0:255 -1:255 32 0] 
f 0.202008422 _7_ RTR  --- 0 undefined 20 [0 ffffffff 2 800] ------- [0:255 -1:255 32 0] 
r 0.202882520 _2_ RTR  --- 0 undefined 20 [0 ffffffff 3 800] ------- [0:255 -1:255 32 0] 
r 0.202882520 _4_ RTR  --- 0 undefined 20 [0 ffffffff 3 800] ------- [0:255 -1:255 32 0] 
f 0.202882520 _4_ RTR  --- 0 undefined 20 [0 ffffffff 3 800] ------- [0:255 -1:255 32 0] 
r 0.202882520 _7_ RTR  --- 0 undefined 20 [0 ffffffff 3 800] ------- [0:255 -1:255 32 0] 
r 0.202882539 _0_ RTR  --- 0 undefined 20 [0 ffffffff 3 800] ------- [0:255 -1:255 32 0] 
r 0.202882589 _6_ RTR  --- 0 undefined 20 [0 ffffffff 3 800] ------- [0:255 -1:255 32 0] 
r 0.202882589 _8_ RTR  --- 0 undefined 20 [0 ffffffff 3 800] ------- [0:255 -1:255 32 0] 
f 0.202882589 _8_ RTR  --- 0 undefined 20 [0 ffffffff 3 800] ------- [0:255 -1:255 32 0] 
r 0.203606755 _7_ RTR  --- 0 undefined 20 [0 ffffffff 8 800] ------- [0:255 -1:255 32 0] 
r 0.203606755 _4_ RTR  --- 0 undefined 20 [0 ffffffff 8 800] ------- [0:255 -1:255 32 0] 
r 0.203606755 _12_ RTR  --- 0 undefined 20 [0 ffffffff 8 800] ------- [0:255 -1:255 32 0] 
f 0.203606755 _12_ RTR  --- 0 undefined 20 [0 ffffffff 8 800] ------- [0:255 -1:255 32 0] 
r 0.203606824 _3_ RTR  --- 0 undefined 20 [0 ffffffff 8 800] ------- [0:255 -1:255 32 0] 
r 0.203606824 _11_ RTR  --- 0 undefined 20 [0 ffffffff 8 800] ------- [0:255 -1:255 32 0] 
f 0.203606824 _11_ RTR  --- 0 undefined 20 [0 ffffffff 8 800] ------- [0:255 -1:255 32 0] 
r 0.204320922 _6_ RTR  --- 0 undefined 20 [0 ffffffff 7 800] ------- [0:255 -1:255 32 0] 
r 0.204320922 _3_ RTR  --- 0 undefined 20 [0 ffffffff 7 800] ------- [0:255 -1:255 32 0] 
r 0.204320922 _8_ RTR  --- 0 undefined 20 [0 ffffffff 7 800] ------- [0:255 -1:255 32 0] 
r 0.204320922 _11_ RTR  --- 0 undefined 20 [0 ffffffff 7 800] ------- [0:255 -1:255 32 0] 
r 0.204320991 _4_ RTR  --- 0 undefined 20 [0 ffffffff 7 800] ------- [0:255 -1:255 32 0] 
r 0.204320991 _2_ RTR  --- 0 undefined 20 [0 ffffffff 7 800] ------- [0:255 -1:255 32 0] 
r 0.204320991 _10_ RTR  --- 0 undefined 20 [0 ffffffff 7 800] ------- [0:255 -1:255 32 0] 
f 0.204320991 _10_ RTR  --- 0 undefined 20 [0 ffffffff 7 800] ------- [0:255 -1:255 32 0] 
r 0.204320991 _12_ RTR  --- 0 undefined 20 [0 ffffffff 7 800] ------- [0:255 -1:255 32 0] 
r 0.205135089 _5_ RTR  --- 0 undefined 20 [0 ffffffff 6 800] ------- [0:255 -1:255 32 0] 
r 0.205135089 _2_ RTR  --- 0 undefined 20 [0 ffffffff 6 800] ------- [0:255 -1:255 32 0] 
r 0.205135089 _7_ RTR  --- 0 undefined 20 [0 ffffffff 6 800] ------- [0:255 -1:255 32 0] 
r 0.205135089 _10_ RTR  --- 0 undefined 20 [0 ffffffff 6 800] ------- [0:255 -1:255 32 0] 
r 0.205135158 _3_ RTR  --- 0 undefined 20 [0 ffffffff 6 800] ------- [0:255 -1:255 32 0] 
r 0.205135158 _1_ RTR  --- 0 undefined 20 [0 ffffffff 6 800] ------- [0:255 -1:255 32 0] 
r 0.205135158 _9_ RTR  --- 0 undefined 20 [0 ffffffff 6 800] ------- [0:255 -1:255 32 0] 
f 0.205135158 _9_ RTR  --- 0 undefined 20 [0 ffffffff 6 800] ------- [0:255 -1:255 32 0] 
r 0.205135158 _11_ RTR  --- 0 undefined 20 [0 ffffffff 6 800] ------- [0:255 -1:255 32 0] 
r 0.205829255 _1_ RTR  --- 0 undefined 20 [0 ffffffff 5 800] ------- [0:255 -1:255 32 0] 
r 0.205829255 _6_ RTR  --- 0 undefined 20 [0 ffffffff 5 800] ------- [0:255 -1:255 32 0] 
r 0.205829255 _9_ RTR  --- 0 undefined 20 [0 ffffffff 5 800] ------- [0:255 -1:255 32 0] 
r 0.205829324 _2_ RTR  --- 0 undefined 20 [0 ffffffff 5 800] ------- [0:255 -1:255 32 0] 
r 0.205829324 _10_ RTR  --- 0 undefined 20 [0 ffffffff 5 800] ------- [0:255 -1:255 32 0] 
r 0.206563422 _2_ RTR  --- 0 undefined 20 [0 ffffffff 1 800] ------- [0:255 -1:255 32 0] 
r 0.206563422 _5_ RTR  --- 0 undefined 20 [0 ffffffff 1 800] ------- [0:255 -1:255 32 0] 
r 0.206563491 _6_ RTR  --- 0 undefined 20 [0 ffffffff 1 800] ------- [0:255 -1:255 32 0] 
r 0.207661755 _5_ RTR  --- 0 undefined 20 [0 ffffffff 9 800] ------- [0:255 -1:255 32 0] 
r 0.207661755 _10_ RTR  --- 0 undefined 20 [0 ffffffff 9 800] ------- [0:255 -1:255 32 0] 
r 0.207661755 _13_ RTR  --- 0 undefined 20 [0 ffffffff 9 800] ------- [0:255 -1:255 32 0] 
f 0.207661755 _13_ RTR  --- 0 undefined 20 [0 ffffffff 9 800] ------- [0:255 -1:255 32 0] 
r 0.207661824 _6_ RTR  --- 0 undefined 20 [0 ffffffff 9 800] ------- [0:255 -1:255 32 0] 
r 0.207661824 _14_ RTR  --- 0 undefined 20 [0 ffffffff 9 800] ------- [0:255 -1:255 32 0] 
f 0.207661824 _14_ RTR  --- 0 undefined 20 [0 ffffffff 9 800] ------- [0:255 -1:255 32 0] 
r 0.208505922 _9_ RTR  --- 0 undefined 20 [0 ffffffff d 800] ------- [0:255 -1:255 32 0] 
r 0.208505922 _14_ RTR  --- 0 undefined 20 [0 ffffffff d 800] ------- [0:255 -1:255 32 0] 
r 0.208505922 _17_ RTR  --- 0 undefined 20 [0 ffffffff d 800] ------- [0:255 -1:255 32 0] 
f 0.208505922 _17_ RTR  --- 0 undefined 20 [0 ffffffff d 800] ------- [0:255 -1:255 32 0] 
r 0.208505991 _10_ RTR  --- 0 undefined 20 [0 ffffffff d 800] ------- [0:255 -1:255 32 0] 
r 0.208505991 _18_ RTR  --- 0 undefined 20 [0 ffffffff d 800] ------- [0:255 -1:255 32 0] 
f 0.208505991 _18_ RTR  --- 0 undefined 20 [0 ffffffff d 800] ------- [0:255 -1:255 32 0] 
r 0.209260089 _13_ RTR  --- 0 undefined 20 [0 ffffffff e 800] ------- [0:255 -1:255 32 0] 
r 0.209260089 _10_ RTR  --- 0 undefined 20 [0 ffffffff e 800] ------- [0:255 -1:255 32 0] 
r 0.209260089 _15_ RTR  --- 0 undefined 20 [0 ffffffff e 800] ------- [0:255 -1:255 32 0] 
f 0.209260089 _15_ RTR  --- 0 undefined 20 [0 ffffffff e 800] ------- [0:255 -1:255 32 0] 
r 0.209260089 _18_ RTR  --- 0 undefined 20 [0 ffffffff e 800] ------- [0:255 -1:255 32 0] 
r 0.209260158 _11_ RTR  --- 0 undefined 20 [0 ffffffff e 800] ------- [0:255 -1:255 32 0] 
r 0.209260158 _9_ RTR  --- 0 undefined 20 [0 ffffffff e 800] ------- [0:255 -1:255 32 0] 
r 0.209260158 _17_ RTR  --- 0 undefined 20 [0 ffffffff e 800] ------- [0:255 -1:255 32 0] 
r 0.209260158 _19_ RTR  --- 0 undefined 20 [0 ffffffff e 800] ------- [0:255 -1:255 32 0] 
f 0.209260158 _19_ RTR  --- 0 undefined 20 [0 ffffffff e 800] ------- [0:255 -1:255 32 0] 
r 0.209954255 _9_ RTR  --- 0 undefined 20 [0 ffffffff a 800] ------- [0:255 -1:255 32 0] 
r 0.209954255 _6_ RTR  --- 0 undefined 20 [0 ffffffff a 800] ------- [0:255 -1:255 32 0] 
r 0.209954255 _11_ RTR  --- 0 undefined 20 [0 ffffffff a 800] ------- [0:255 -1:255 32 0] 
r 0.209954255 _14_ RTR  --- 0 undefined 20 [0 ffffffff a 800] ------- [0:255 -1:255 32 0] 
r 0.209954324 _7_ RTR  --- 0 undefined 20 [0 ffffffff a 800] ------- [0:255 -1:255 32 0] 
r 0.209954324 _5_ RTR  --- 0 undefined 20 [0 ffffffff a 800] ------- [0:255 -1:255 32 0] 
r 0.209954324 _13_ RTR  --- 0 undefined 20 [0 ffffffff a 800] ------- [0:255 -1:255 32 0] 
r 0.209954324 _15_ RTR  --- 0 undefined 20 [0 ffffffff a 800] ------- [0:255 -1:255 32 0] 
r 0.210668422 _10_ RTR  --- 0 undefined 20 [0 ffffffff b 800] ------- [0:255 -1:255 32 0] 
r 0.210668422 _7_ RTR  --- 0 undefined 20 [0 ffffffff b 800] ------- [0:255 -1:255 32 0] 
r 0.210668422 _12_ RTR  --- 0 undefined 20 [0 ffffffff b 800] ------- [0:255 -1:255 32 0] 
r 0.210668422 _15_ RTR  --- 0 undefined 20 [0 ffffffff b 800] ------- [0:255 -1:255 32 0] 
r 0.210668491 _8_ RTR  --- 0 undefined 20 [0 ffffffff b 800] ------- [0:255 -1:255 32 0] 
r 0.210668491 _6_ RTR  --- 0 undefined 20 [0 ffffffff b 800] ------- [0:255 -1:255 32 0] 
r 0.210668491 _14_ RTR  --- 0 undefined 20 [0 ffffffff b 800] ------- [0:255 -1:255 32 0] 
r 0.210668491 _16_ RTR  --- 0 undefined 20 [0 ffffffff b 800] ------- [0:255 -1:255 32 0] 
f 0.210668491 _16_ RTR  --- 0 undefined 20 [0 ffffffff b 800] ------- [0:255 -1:255 32 0] 
r 0.211362589 _14_ RTR  --- 0 undefined 20 [0 ffffffff f 800] ------- [0:255 -1:255 32 0] 
r 0.211362589 _11_ RTR  --- 0 undefined 20 [0 ffffffff f 800] ------- [0:255 -1:255 32 0] 
r 0.211362589 _16_ RTR  --- 0 undefined 20 [0 ffffffff f 800] ------- [0:255 -1:255 32 0] 
r 0.211362589 _19_ RTR  --- 0 undefined 20 [0 ffffffff f 800] ------- [0:255 -1:255 32 0] 
r 0.211362658 _12_ RTR  --- 0 undefined 20 [0 ffffffff f 800] ------- [0:255 -1:255 32 0] 
r 0.211362658 _10_ RTR  --- 0 undefined 20 [0 ffffffff f 800] ------- [0:255 -1:255 32 0] 
r 0.211362658 _18_ RTR  --- 0 undefined 20 [0 ffffffff f 800] ------- [0:255 -1:255 32 0] 
r 0.211362658 _20_ RTR  --- 0 undefined 20 [0 ffffffff f 800] ------- [0:255 -1:255 32 0] 
f 0.211362658 _20_ RTR  --- 0 undefined 20 [0 ffffffff f 800] ------- [0:255 -1:255 32 0] 
r 0.212096755 _15_ RTR  --- 0 undefined 20 [0 ffffffff 10 800] ------- [0:255 -1:255 32 0] 
r 0.212096755 _12_ RTR  --- 0 undefined 20 [0 ffffffff 10 800] ------- [0:255 -1:255 32 0] 
r 0.212096755 _20_ RTR  --- 0 undefined 20 [0 ffffffff 10 800] ------- [0:255 -1:255 32 0] 
r 0.212096824 _11_ RTR  --- 0 undefined 20 [0 ffffffff 10 800] ------- [0:255 -1:255 32 0] 
r 0.212096824 _19_ RTR  --- 0 undefined 20 [0 ffffffff 10 800] ------- [0:255 -1:255 32 0] 
r 0.212790922 _11_ RTR  --- 0 undefined 20 [0 ffffffff c 800] ------- [0:255 -1:255 32 0] 
r 0.212790922 _8_ RTR  --- 0 undefined 20 [0 ffffffff c 800] ------- [0:255 -1:255 32 0] 
r 0.212790922 _16_ RTR  --- 0 undefined 20 [0 ffffffff c 800] ------- [0:255 -1:255 32 0] 
r 0.212790991 _7_ RTR  --- 0 undefined 20 [0 ffffffff c 800] ------- [0:255 -1:255 32 0] 
r 0.212790991 _15_ RTR  --- 0 undefined 20 [0 ffffffff c 800] ------- [0:255 -1:255 32 0] 
r 0.213869523 _13_ RTR  --- 0 undefined 20 [0 ffffffff 11 800] ------- [0:255 -1:255 32 0] 
r 0.213869523 _18_ RTR  --- 0 undefined 20 [0 ffffffff 11 800] ------- [0:255 -1:255 32 0] 
r 0.213869543 _21_ RTR  --- 0 undefined 20 [0 ffffffff 11 800] ------- [0:255 -1:255 32 0] 
f 0.213869543 _21_ RTR  --- 0 undefined 20 [0 ffffffff 11 800] ------- [0:255 -1:255 32 0] 
r 0.213869592 _14_ RTR  --- 0 undefined 20 [0 ffffffff 11 800] ------- [0:255 -1:255 32 0] 
r 0.214663690 _17_ RTR  --- 0 undefined 20 [0 ffffffff 12 800] ------- [0:255 -1:255 32 0] 
r 0.214663690 _14_ RTR  --- 0 undefined 20 [0 ffffffff 12 800] ------- [0:255 -1:255 32 0] 
r 0.214663690 _19_ RTR  --- 0 undefined 20 [0 ffffffff 12 800] ------- [0:255 -1:255 32 0] 
r 0.214663709 _21_ RTR  --- 0 undefined 20 [0 ffffffff 12 800] ------- [0:255 -1:255 32 0] 
r 0.214663709 _22_ RTR  --- 0 undefined 20 [0 ffffffff 12 800] ------- [0:255 -1:255 32 0] 
f 0.214663709 _22_ RTR  --- 0 undefined 20 [0 ffffffff 12 800] ------- [0:255 -1:255 32 0] 
r 0.214663759 _15_ RTR  --- 0 undefined 20 [0 ffffffff 12 800] ------- [0:255 -1:255 32 0] 
r 0.214663759 _13_ RTR  --- 0 undefined 20 [0 ffffffff 12 800] ------- [0:255 -1:255 32 0] 
r 0.215557856 _18_ RTR  --- 0 undefined 20 [0 ffffffff 13 800] ------- [0:255 -1:255 32 0] 
r 0.215557856 _15_ RTR  --- 0 undefined 20 [0 ffffffff 13 800] ------- [0:255 -1:255 32 0] 
r 0.215557856 _20_ RTR  --- 0 undefined 20 [0 ffffffff 13 800] ------- [0:255 -1:255 32 0] 
r 0.215557876 _22_ RTR  --- 0 undefined 20 [0 ffffffff 13 800] ------- [0:255 -1:255 32 0] 
r 0.215557876 _23_ RTR  --- 0 undefined 20 [0 ffffffff 13 800] ------- [0:255 -1:255 32 0] 
f 0.215557876 _23_ RTR  --- 0 undefined 20 [0 ffffffff 13 800] ------- [0:255 -1:255 32 0] 
s 0.215557876 _23_ RTR  --- 0 undefined 20 [0 0 0 0] ------- [23:255 -1:255 32 0] 
r 0.215557925 _16_ RTR  --- 0 undefined 20 [0 ffffffff 13 800] ------- [0:255 -1:255 32 0] 
r 0.215557925 _14_ RTR  --- 0 undefined 20 [0 ffffffff 13 800] ------- [0:255 -1:255 32 0] 
r 0.216292023 _19_ RTR  --- 0 undefined 20 [0 ffffffff 14 800] ------- [0:255 -1:255 32 0] 
r 0.216292023 _16_ RTR  --- 0 undefined 20 [0 ffffffff 14 800] ------- [0:255 -1:255 32 0] 
r 0.216292043 _23_ RTR  --- 0 undefined 20 [0 ffffffff 14 800] ------- [0:255 -1:255 32 0] 
r 0.216292092 _15_ RTR  --- 0 undefined 20 [0 ffffffff 14 800] ------- [0:255 -1:255 32 0] 
r 0.217006209 _22_ RTR  --- 0 undefined 20 [0 ffffffff 17 800] ------- [0:255 -1:255 32 0] 
r 0.217006229 _20_ RTR  --- 0 undefined 20 [0 ffffffff 17 800] ------- [0:255 -1:255 32 0] 
r 0.217006229 _19_ RTR  --- 0 undefined 20 [0 ffffffff 17 800] ------- [0:255 -1:255 32 0] 
r 0.217760376 _21_ RTR  --- 0 undefined 20 [0 ffffffff 16 800] ------- [0:255 -1:255 32 0] 
r 0.217760376 _23_ RTR  --- 0 undefined 20 [0 ffffffff 16 800] ------- [0:255 -1:255 32 0] 
r 0.217760396 _19_ RTR  --- 0 undefined 20 [0 ffffffff 16 800] ------- [0:255 -1:255 32 0] 
r 0.217760396 _18_ RTR  --- 0 undefined 20 [0 ffffffff 16 800] ------- [0:255 -1:255 32 0] 
r 0.218454543 _22_ RTR  --- 0 undefined 20 [0 ffffffff 15 800] ------- [0:255 -1:255 32 0] 
r 0.218454562 _18_ RTR  --- 0 undefined 20 [0 ffffffff 15 800] ------- [0:255 -1:255 32 0] 
r 0.218454562 _17_ RTR  --- 0 undefined 20 [0 ffffffff 15 800] ------- [0:255 -1:255 32 0] 
r 0.219513474 _3_ RTR  --- 0 undefined 20 [0 ffffffff 4 800] ------- [0:255 -1:255 32 0] 
r 0.219513474 _8_ RTR  --- 0 undefined 20 [0 ffffffff 4 800] ------- [0:255 -1:255 32 0] 
r 0.219513543 _7_ RTR  --- 0 undefined 20 [0 ffffffff 4 800] ------- [0:255 -1:255 32 0] 
r 0.220652312 _22_ RTR  --- 0 undefined 20 [0 ffffffff 17 800] ------- [23:255 -1:255 32 0] 
s 0.220652312 _22_ RTR  --- 0 undefined 20 [0 0 0 0] ------- [22:255 -1:255 32 0] 
r 0.220652331 _20_ RTR  --- 0 undefined 20 [0 ffffffff 17 800] ------- [23:255 -1:255 32 0] 
r 0.220652331 _19_ RTR  --- 0 undefined 20 [0 ffffffff 17 800] ------- [23:255 -1:255 32 0] 
r 0.221496478 _21_ RTR  --- 0 undefined 20 [0 ffffffff 16 800] ------- [22:255 -1:255 32 0] 
r 0.221496478 _23_ RTR  --- 0 undefined 20 [0 ffffffff 16 800] ------- [22:255 -1:255 32 0] 
r 0.221496498 _19_ RTR  --- 0 undefined 20 [0 ffffffff 16 800] ------- [22:255 -1:255 32 0] 
r 0.221496498 _18_ RTR  --- 0 undefined 20 [0 ffffffff 16 800] ------- [22:255 -1:255 32 0] 
s 0.300000000 _0_ RTR  --- 0 undefined 20 [0 0 0 0] ------- [0:255 -1:255 32 0] 
r 0.300944186 _2_ RTR  --- 0 undefined 20 [0 ffffffff 0 800] ------- [0:255 -1:255 32 0] 
f 0.300944186 _2_ RTR  --- 0 undefined 20 [0 ffffffff 0 800] ------- [0:255 -1:255 32 0] 
r 0.300944186 _3_ RTR  --- 0 undefined 20 [0 ffffffff 0 800] ------- [0:255 -1:255 32 0] 
f 0.300944186 _3_ RTR  --- 0 undefined 20 [0 ffffffff 0 800] ------- [0:255 -1:255 32 0] 
r 0.301808353 _1_ RTR  --- 0 undefined 20 [0 ffffffff 2 800] ------- [0:255 -1:255 32 0] 
f 0.301808353 _1_ RTR  --- 0 undefined 20 [0 ffffffff 2 800] ------- [0:255 -1:255 32 0] 
r 0.301808353 _3_ RTR  --- 0 undefined 20 [0 ffffffff 2 800] ------- [0:255 -1:255 32 0] 
r 0.301808353 _6_ RTR  --- 0 undefined 20 [0 ffffffff 2 800] ------- [0:255 -1:255 32 0] 
f 0.301808353 _6_ RTR  --- 0 undefined 20 [0 ffffffff 2 800] ------- [0:255 -1:255 32 0] 
r 0.301808373 _0_ RTR  --- 0 undefined 20 [0 ffffffff 2 800] ------- [0:255 -1:255 32 0] 
r 0.301808422 _5_ RTR  --- 0 undefined 20 [0 ffffffff 2 800] ------- [0:255 -1:255 32 0] 
f 0.301808422 _5_ RTR  --- 0 undefined 20 [0 ffffffff 2 800] ------- [0:255 -1:255 32 0] 
r 0.301808422 _7_ RTR  --- 0 undefined 20 [0 ffffffff 2 800] ------- [0:255 -1:255 32 0] 
f 0.301808422 _7_ RTR  --- 0 undefined 20 [0 ffffffff 2 800] ------- [0:255 -1:255 32 0] 
r 0.302692589 _6_ RTR  --- 0 undefined 20 [0 ffffffff 7 800] ------- [0:255 -1:255 32 0] 
r 0.302692589 _3_ RTR  --- 0 undefined 20 [0 ffffffff 7 800] ------- [0:255 -1:255 32 0] 
r 0.302692589 _8_ RTR  --- 0 undefined 20 [0 ffffffff 7 800] ------- [0:255 -1:255 32 0] 
f 0.302692589 _8_ RTR  --- 0 undefined 20 [0 ffffffff 7 800] ------- [0:255 -1:255 32 0] 
r 0.302692589 _11_ RTR  --- 0 undefined 20 [0 ffffffff 7 800] ------- [0:255 -1:255 32 0] 
f 0.302692589 _11_ RTR  --- 0 undefined 20 [0 ffffffff 7 800] ------- [0:255 -1:255 32 0] 
r 0.302692658 _4_ RTR  --- 0 undefined 20 [0 ffffffff 7 800] ------- [0:255 -1:255 32 0] 
f 0.302692658 _4_ RTR  --- 0 undefined 20 [0 ffffffff 7 800] ------- [0:255 -1:255 32 0] 
r 0.302692658 _2_ RTR  --- 0 undefined 20 [0 ffffffff 7 800] ------- [0:255 -1:255 32 0] 
r 0.302692658 _10_ RTR  --- 0 undefined 20 [0 ffffffff 7 800] ------- [0:255 -1:255 32 0] 
f 0.302692658 _10_ RTR  --- 0 undefined 20 [0 ffffffff 7 800] ------- [0:255 -1:255 32 0] 
r 0.302692658 _12_ RTR  --- 0 undefined 20 [0 ffffffff 7 800] ------- [0:255 -1:255 32 0] 
f 0.302692658 _12_ RTR  --- 0 undefined 20 [0 ffffffff 7 800] ------- [0:255 -1:255 32 0] 
r 0.303386755 _2_ RTR  --- 0 undefined 20 [0 ffffffff 3 800] ------- [0:255 -1:255 32 0] 
r 0.303386755 _4_ RTR  --- 0 undefined 20 [0 ffffffff 3 800] ------- [0:255 -1:255 32 0] 
r 0.303386755 _7_ RTR  --- 0 undefined 20 [0 ffffffff 3 800] ------- [0:255 -1:255 32 0] 
r 0.303386775 _0_ RTR  --- 0 undefined 20 [0 ffffffff 3 800] ------- [0:255 -1:255 32 0] 
r 0.303386824 _6_ RTR  --- 0 undefined 20 [0 ffffffff 3 800] ------- [0:255 -1:255 32 0] 