s 0.100000000 _0_ RTR  --- 0 undefined 20 [0 0 0 0] ------- [0:255 -1:255 32 0] 
r 0.101184186 _2_ RTR  --- 0 undefined 20 [0 ffffffff 0 800] ------- [0:255 -1:255 32 0] 
f 0.101184186 _2_ RTR  --- 0 undefined 20 [0 ffffffff 0 800] ------- [0:255 -1:255 32 0] 
r 0.101184186 _3_ RTR  --- 0 undefined 20 [0 ffffffff 0 800] ------- [0:255 -1:255 32 0] 
f 0.101184186 _3_ RTR  --- 0 undefined 20 [0 ffffffff 0 800] ------- [0:255 -1:255 32 0] 
r 0.102208353 _2_ RTR  --- 0 undefined 20 [0 ffffffff 3 800] ------- [0:255 -1:255 32 0] 
r 0.102208353 _4_ RTR  --- 0 undefined 20 [0 ffffffff 3 800] ------- [0:255 -1:255 32 0] 
f 0.102208353 _4_ RTR  --- 0 undefined 20 [0 ffffffff 3 800] ------- [0:255 -1:255 32 0] 
r 0.102208353 _7_ RTR  --- 0 undefined 20 [0 ffffffff 3 800] ------- [0:255 -1:255 32 0] 
f 0.102208353 _7_ RTR  --- 0 undefined 20 [0 ffffffff 3 800] ------- [0:255 -1:255 32 0] 
r 0.102208373 _0_ RTR  --- 0 undefined 20 [0 ffffffff 3 800] ------- [0:255 -1:255 32 0] 
r 0.102208422 _6_ RTR  --- 0 undefined 20 [0 ffffffff 3 800] ------- [0:255 -1:255 32 0] 
f 0.102208422 _6_ RTR  --- 0 undefined 20 [0 ffffffff 3 800] ------- [0:255 -1:255 32 0] 
r 0.102208422 _8_ RTR  --- 0 undefined 20 [0 ffffffff 3 800] ------- [0:255 -1:255 32 0] 
f 0.102208422 _8_ RTR  --- 0 undefined 20 [0 ffffffff 3 800] ------- [0:255 -1:255 32 0] 
r 0.102932520 _3_ RTR  --- 0 undefined 20 [0 ffffffff 4 800] ------- [0:255 -1:255 32 0] 
r 0.102932520 _8_ RTR  --- 0 undefined 20 [0 ffffffff 4 800] ------- [0:255 -1:255 32 0] 
r 0.102932589 _7_ RTR  --- 0 undefined 20 [0 ffffffff 4 800] ------- [0:255 -1:255 32 0] 
r 0.103766755 _6_ RTR  --- 0 undefined 20 [0 ffffffff 7 800] ------- [0:255 -1:255 32 0] 
r 0.103766755 _3_ RTR  --- 0 undefined 20 [0 ffffffff 7 800] ------- [0:255 -1:255 32 0] 
r 0.103766755 _8_ RTR  --- 0 undefined 20 [0 ffffffff 7 800] ------- [0:255 -1:255 32 0] 
r 0.103766755 _11_ RTR  --- 0 undefined 20 [0 ffffffff 7 800] ------- [0:255 -1:255 32 0] 
f 0.103766755 _11_ RTR  --- 0 undefined 20 [0 ffffffff 7 800] ------- [0:255 -1:255 32 0] 
r 0.103766824 _4_ RTR  --- 0 undefined 20 [0 ffffffff 7 800] ------- [0:255 -1:255 32 0] 
r 0.103766824 _2_ RTR  --- 0 undefined 20 [0 ffffffff 7 800] ------- [0:255 -1:255 32 0] 
r 0.103766824 _10_ RTR  --- 0 undefined 20 [0 ffffffff 7 800] ------- [0:255 -1:255 32 0] 
f 0.103766824 _10_ RTR  --- 0 undefined 20 [0 ffffffff 7 800] ------- [0:255 -1:255 32 0] 
r 0.103766824 _12_ RTR  --- 0 undefined 20 [0 ffffffff 7 800] ------- [0:255 -1:255 32 0] 
f 0.103766824 _12_ RTR  --- 0 undefined 20 [0 ffffffff 7 800] ------- [0:255 -1:255 32 0] 
r 0.104520922 _7_ RTR  --- 0 undefined 20 [0 ffffffff 8 800] ------- [0:255 -1:255 32 0] 
r 0.104520922 _4_ RTR  --- 0 undefined 20 [0 ffffffff 8 800] ------- [0:255 -1:255 32 0] 
r 0.104520922 _12_ RTR  --- 0 undefined 20 [0 ffffffff 8 800] ------- [0:255 -1:255 32 0] 
r 0.104520991 _3_ RTR  --- 0 undefined 20 [0 ffffffff 8 800] ------- [0:255 -1:255 32 0] 
r 0.104520991 _11_ RTR  --- 0 undefined 20 [0 ffffffff 8 800] ------- [0:255 -1:255 32 0] 
r 0.105415158 _10_ RTR  --- 0 undefined 20 [0 ffffffff b 800] ------- [0:255 -1:255 32 0] 
r 0.105415158 _7_ RTR  --- 0 undefined 20 [0 ffffffff b 800] ------- [0:255 -1:255 32 0] 
r 0.105415158 _12_ RTR  --- 0 undefined 20 [0 ffffffff b 800] ------- [0:255 -1:255 32 0] 
r 0.105415158 _15_ RTR  --- 0 undefined 20 [0 ffffffff b 800] ------- [0:255 -1:255 32 0] 
f 0.105415158 _15_ RTR  --- 0 undefined 20 [0 ffffffff b 800] ------- [0:255 -1:255 32 0] 
r 0.105415227 _8_ RTR  --- 0 undefined 20 [0 ffffffff b 800] ------- [0:255 -1:255 32 0] 
r 0.105415227 _6_ RTR  --- 0 undefined 20 [0 ffffffff b 800] ------- [0:255 -1:255 32 0] 
r 0.105415227 _14_ RTR  --- 0 undefined 20 [0 ffffffff b 800] ------- [0:255 -1:255 32 0] 
f 0.105415227 _14_ RTR  --- 0 undefined 20 [0 ffffffff b 800] ------- [0:255 -1:255 32 0] 
r 0.105415227 _16_ RTR  --- 0 undefined 20 [0 ffffffff b 800] ------- [0:255 -1:255 32 0] 
f 0.105415227 _16_ RTR  --- 0 undefined 20 [0 ffffffff b 800] ------- [0:255 -1:255 32 0] 
r 0.106109324 _9_ RTR  --- 0 undefined 20 [0 ffffffff a 800] ------- [0:255 -1:255 32 0] 
f 0.106109324 _9_ RTR  --- 0 undefined 20 [0 ffffffff a 800] ------- [0:255 -1:255 32 0] 
r 0.106109324 _6_ RTR  --- 0 undefined 20 [0 ffffffff a 800] ------- [0:255 -1:255 32 0] 
r 0.106109324 _11_ RTR  --- 0 undefined 20 [0 ffffffff a 800] ------- [0:255 -1:255 32 0] 
r 0.106109324 _14_ RTR  --- 0 undefined 20 [0 ffffffff a 800] ------- [0:255 -1:255 32 0] 
r 0.106109393 _7_ RTR  --- 0 undefined 20 [0 ffffffff a 800] ------- [0:255 -1:255 32 0] 
r 0.106109393 _5_ RTR  --- 0 undefined 20 [0 ffffffff a 800] ------- [0:255 -1:255 32 0] 
f 0.106109393 _5_ RTR  --- 0 undefined 20 [0 ffffffff a 800] ------- [0:255 -1:255 32 0] 
r 0.106109393 _13_ RTR  --- 0 undefined 20 [0 ffffffff a 800] ------- [0:255 -1:255 32 0] 
f 0.106109393 _13_ RTR  --- 0 undefined 20 [0 ffffffff a 800] ------- [0:255 -1:255 32 0] 
r 0.106109393 _15_ RTR  --- 0 undefined 20 [0 ffffffff a 800] ------- [0:255 -1:255 32 0] 
r 0.106883491 _5_ RTR  --- 0 undefined 20 [0 ffffffff 6 800] ------- [0:255 -1:255 32 0] 
r 0.106883491 _2_ RTR  --- 0 undefined 20 [0 ffffffff 6 800] ------- [0:255 -1:255 32 0] 
r 0.106883491 _7_ RTR  --- 0 undefined 20 [0 ffffffff 6 800] ------- [0:255 -1:255 32 0] 
r 0.106883491 _10_ RTR  --- 0 undefined 20 [0 ffffffff 6 800] ------- [0:255 -1:255 32 0] 
r 0.106883560 _3_ RTR  --- 0 undefined 20 [0 ffffffff 6 800] ------- [0:255 -1:255 32 0] 
r 0.106883560 _1_ RTR  --- 0 undefined 20 [0 ffffffff 6 800] ------- [0:255 -1:255 32 0] 
f 0.106883560 _1_ RTR  --- 0 undefined 20 [0 ffffffff 6 800] ------- [0:255 -1:255 32 0] 
r 0.106883560 _9_ RTR  --- 0 undefined 20 [0 ffffffff 6 800] ------- [0:255 -1:255 32 0] 
r 0.106883560 _11_ RTR  --- 0 undefined 20 [0 ffffffff 6 800] ------- [0:255 -1:255 32 0] 
r 0.107697658 _1_ RTR  --- 0 undefined 20 [0 ffffffff 2 800] ------- [0:255 -1:255 32 0] 
r 0.107697658 _3_ RTR  --- 0 undefined 20 [0 ffffffff 2 800] ------- [0:255 -1:255 32 0] 
r 0.107697658 _6_ RTR  --- 0 undefined 20 [0 ffffffff 2 800] ------- [0:255 -1:255 32 0] 
r 0.107697677 _0_ RTR  --- 0 undefined 20 [0 ffffffff 2 800] ------- [0:255 -1:255 32 0] 
r 0.107697727 _5_ RTR  --- 0 undefined 20 [0 ffffffff 2 800] ------- [0:255 -1:255 32 0] 
r 0.107697727 _7_ RTR  --- 0 undefined 20 [0 ffffffff 2 800] ------- [0:255 -1:255 32 0] 
r 0.108391893 _1_ RTR  --- 0 undefined 20 [0 ffffffff 5 800] ------- [0:255 -1:255 32 0] 
r 0.108391893 _6_ RTR  --- 0 undefined 20 [0 ffffffff 5 800] ------- [0:255 -1:255 32 0] 
r 0.108391893 _9_ RTR  --- 0 undefined 20 [0 ffffffff 5 800] ------- [0:255 -1:255 32 0] 
r 0.108391962 _2_ RTR  --- 0 undefined 20 [0 ffffffff 5 800] ------- [0:255 -1:255 32 0] 
r 0.108391962 _10_ RTR  --- 0 undefined 20 [0 ffffffff 5 800] ------- [0:255 -1:255 32 0] 
r 0.109206060 _13_ RTR  --- 0 undefined 20 [0 ffffffff 9 800] ------- [0:255 -1:255 32 0] 
r 0.109206129 _14_ RTR  --- 0 undefined 20 [0 ffffffff 9 800] ------- [0:255 -1:255 32 0] 
r 0.110304587 _13_ RTR  --- 0 undefined 20 [0 ffffffff e 800] ------- [0:255 -1:255 32 0] 
r 0.110304587 _10_ RTR  --- 0 undefined 20 [0 ffffffff e 800] ------- [0:255 -1:255 32 0] 
r 0.110304587 _15_ RTR  --- 0 undefined 20 [0 ffffffff e 800] ------- [0:255 -1:255 32 0] 
r 0.110304587 _18_ RTR  --- 0 undefined 20 [0 ffffffff e 800] ------- [0:255 -1:255 32 0] 
f 0.110304587 _18_ RTR  --- 0 undefined 20 [0 ffffffff e 800] ------- [0:255 -1:255 32 0] 
r 0.110304656 _11_ RTR  --- 0 undefined 20 [0 ffffffff e 800] ------- [0:255 -1:255 32 0] 
r 0.110304656 _9_ RTR  --- 0 undefined 20 [0 ffffffff e 800] ------- [0:255 -1:255 32 0] 
r 0.110304656 _17_ RTR  --- 0 undefined 20 [0 ffffffff e 800] ------- [0:255 -1:255 32 0] 
f 0.110304656 _17_ RTR  --- 0 undefined 20 [0 ffffffff e 800] ------- [0:255 -1:255 32 0] 
r 0.110304656 _19_ RTR  --- 0 undefined 20 [0 ffffffff e 800] ------- [0:255 -1:255 32 0] 
f 0.110304656 _19_ RTR  --- 0 undefined 20 [0 ffffffff e 800] ------- [0:255 -1:255 32 0] 
r 0.111058754 _14_ RTR  --- 0 undefined 20 [0 ffffffff f 800] ------- [0:255 -1:255 32 0] 
r 0.111058754 _11_ RTR  --- 0 undefined 20 [0 ffffffff f 800] ------- [0:255 -1:255 32 0] 
r 0.111058754 _16_ RTR  --- 0 undefined 20 [0 ffffffff f 800] ------- [0:255 -1:255 32 0] 
r 0.111058754 _19_ RTR  --- 0 undefined 20 [0 ffffffff f 800] ------- [0:255 -1:255 32 0] 
r 0.111058823 _12_ RTR  --- 0 undefined 20 [0 ffffffff f 800] ------- [0:255 -1:255 32 0] 
r 0.111058823 _10_ RTR  --- 0 undefined 20 [0 ffffffff f 800] ------- [0:255 -1:255 32 0] 
r 0.111058823 _18_ RTR  --- 0 undefined 20 [0 ffffffff f 800] ------- [0:255 -1:255 32 0] 
r 0.111058823 _20_ RTR  --- 0 undefined 20 [0 ffffffff f 800] ------- [0:255 -1:255 32 0] 
f 0.111058823 _20_ RTR  --- 0 undefined 20 [0 ffffffff f 800] ------- [0:255 -1:255 32 0] 
r 0.111922990 _19_ RTR  --- 0 undefined 20 [0 ffffffff 14 800] ------- [0:255 -1:255 32 0] 
r 0.111922990 _16_ RTR  --- 0 undefined 20 [0 ffffffff 14 800] ------- [0:255 -1:255 32 0] 
r 0.111923009 _23_ RTR  --- 0 undefined 20 [0 ffffffff 14 800] ------- [0:255 -1:255 32 0] 
f 0.111923009 _23_ RTR  --- 0 undefined 20 [0 ffffffff 14 800] ------- [0:255 -1:255 32 0] 
r 0.111923059 _15_ RTR  --- 0 undefined 20 [0 ffffffff 14 800] ------- [0:255 -1:255 32 0] 
r 0.112697156 _18_ RTR  --- 0 undefined 20 [0 ffffffff 13 800] ------- [0:255 -1:255 32 0] 
r 0.112697156 _15_ RTR  --- 0 undefined 20 [0 ffffffff 13 800] ------- [0:255 -1:255 32 0] 
r 0.112697156 _20_ RTR  --- 0 undefined 20 [0 ffffffff 13 800] ------- [0:255 -1:255 32 0] 
r 0.112697176 _22_ RTR  --- 0 undefined 20 [0 ffffffff 13 800] ------- [0:255 -1:255 32 0] 
f 0.112697176 _22_ RTR  --- 0 undefined 20 [0 ffffffff 13 800] ------- [0:255 -1:255 32 0] 
r 0.112697176 _23_ RTR  --- 0 undefined 20 [0 ffffffff 13 800] ------- [0:255 -1:255 32 0] 
r 0.112697225 _16_ RTR  --- 0 undefined 20 [0 ffffffff 13 800] ------- [0:255 -1:255 32 0] 
r 0.112697225 _14_ RTR  --- 0 undefined 20 [0 ffffffff 13 800] ------- [0:255 -1:255 32 0] 
r 0.113511392 _15_ RTR  --- 0 undefined 20 [0 ffffffff 10 800] ------- [0:255 -1:255 32 0] 
r 0.113511392 _12_ RTR  --- 0 undefined 20 [0 ffffffff 10 800] ------- [0:255 -1:255 32 0] 
r 0.113511392 _20_ RTR  --- 0 undefined 20 [0 ffffffff 10 800] ------- [0:255 -1:255 32 0] 
r 0.113511461 _11_ RTR  --- 0 undefined 20 [0 ffffffff 10 800] ------- [0:255 -1:255 32 0] 
r 0.113511461 _19_ RTR  --- 0 undefined 20 [0 ffffffff 10 800] ------- [0:255 -1:255 32 0] 
r 0.114225559 _11_ RTR  --- 0 undefined 20 [0 ffffffff c 800] ------- [0:255 -1:255 32 0] 
r 0.114225559 _8_ RTR  --- 0 undefined 20 [0 ffffffff c 800] ------- [0:255 -1:255 32 0] 
r 0.114225559 _16_ RTR  --- 0 undefined 20 [0 ffffffff c 800] ------- [0:255 -1:255 32 0] 
r 0.114225628 _7_ RTR  --- 0 undefined 20 [0 ffffffff c 800] ------- [0:255 -1:255 32 0] 
r 0.114225628 _15_ RTR  --- 0 undefined 20 [0 ffffffff c 800] ------- [0:255 -1:255 32 0] 
r 0.116342534 _9_ RTR  --- 0 undefined 20 [0 ffffffff d 800] ------- [0:255 -1:255 32 0] 
r 0.116342534 _14_ RTR  --- 0 undefined 20 [0 ffffffff d 800] ------- [0:255 -1:255 32 0] 
r 0.116342534 _17_ RTR  --- 0 undefined 20 [0 ffffffff d 800] ------- [0:255 -1:255 32 0] 
r 0.116342603 _10_ RTR  --- 0 undefined 20 [0 ffffffff d 800] ------- [0:255 -1:255 32 0] 
r 0.116342603 _18_ RTR  --- 0 undefined 20 [0 ffffffff d 800] ------- [0:255 -1:255 32 0] 
r 0.117441068 _22_ RTR  --- 0 undefined 20 [0 ffffffff 17 800] ------- [0:255 -1:255 32 0] 
r 0.117441088 _20_ RTR  --- 0 undefined 20 [0 ffffffff 17 800] ------- [0:255 -1:255 32 0] 
r 0.117441088 _19_ RTR  --- 0 undefined 20 [0 ffffffff 17 800] ------- [0:255 -1:255 32 0] 
s 0.200000000 _0_ RTR  --- 0 undefined 20 [0 0 0 0] ------- [0:255 -1:255 32 0] 
r 0.201224186 _2_ RTR  --- 0 undefined 20 [0 ffffffff 0 800] ------- [0:255 -1:255 32 0] 
f 0.201224186 _2_ RTR  --- 0 undefined 20 [0 ffffffff 0 800] ------- [0:255 -1:255 32 0] 
r 0.201224186 _3_ RTR  --- 0 undefined 20 [0 ffffffff 0 800] ------- [0:255 -1:255 32 0] 
f 0.201224186 _3_ RTR  --- 0 undefined 20 [0 ffffffff 0 800] ------- [0:255 -1:255 32 0] 
r 0.202128353 _1_ RTR  --- 0 undefined 20 [0 ffffffff 2 800] ------- [0:255 -1:255 32 0] 
f 0.202128353 _1_ RTR  --- 0 undefined 20 [0 ffffffff 2 800] ------- [0:255 -1:255 32 0] 
r 0.202128353 _3_ RTR  --- 0 undefined 20 [0 ffffffff 2 800] ------- [0:255 -1:255 32 0] 
r 0.202128353 _6_ RTR  --- 0 undefined 20 [0 ffffffff 2 800] ------- [0:255 -1:255 32 0] 
f 0.202128353 _6_ RTR  --- 0 undefined 20 [0 ffffffff 2 800] ------- [0:255 -1:255 32 0] 
r 0.202128373 _0_ RTR  --- 0 undefined 20 [0 ffffffff 2 800] ------- [0:255 -1:255 32 0] 
r 0.202128422 _5_ RTR  --- 0 undefined 20 [0 ffffffff 2 800] ------- [0:255 -1:255 32 0] 
f 0.202128422 _5_ RTR  --- 0 undefined 20 [0 ffffffff 2 800] ------- [0:255 -1:255 32 0] 
r 0.202128422 _7_ RTR  --- 0 undefined 20 [0 ffffffff 2 800] ------- [0:255 -1:255 32 0] 
f 0.202128422 _7_ RTR  --- 0 undefined 20 [0 ffffffff 2 800] ------- [0:255 -1:255 32 0] 
r 0.202852520 _2_ RTR  --- 0 undefined 20 [0 ffffffff 1 800] ------- [0:255 -1:255 32 0] 
r 0.202852520 _5_ RTR  --- 0 undefined 20 [0 ffffffff 1 800] ------- [0:255 -1:255 32 0] 
r 0.202852589 _6_ RTR  --- 0 undefined 20 [0 ffffffff 1 800] ------- [0:255 -1:255 32 0] 
r 0.203746755 _5_ RTR  --- 0 undefined 20 [0 ffffffff 6 800] ------- [0:255 -1:255 32 0] 
r 0.203746755 _2_ RTR  --- 0 undefined 20 [0 ffffffff 6 800] ------- [0:255 -1:255 32 0] 
r 0.203746755 _7_ RTR  --- 0 undefined 20 [0 ffffffff 6 800] ------- [0:255 -1:255 32 0] 
r 0.203746755 _10_ RTR  --- 0 undefined 20 [0 ffffffff 6 800] ------- [0:255 -1:255 32 0] 
f 0.203746755 _10_ RTR  --- 0 undefined 20 [0 ffffffff 6 800] ------- [0:255 -1:255 32 0] 
r 0.203746824 _3_ RTR  --- 0 undefined 20 [0 ffffffff 6 800] ------- [0:255 -1:255 32 0] 
r 0.203746824 _1_ RTR  --- 0 undefined 20 [0 ffffffff 6 800] ------- [0:255 -1:255 32 0] 
r 0.203746824 _9_ RTR  --- 0 undefined 20 [0 ffffffff 6 800] ------- [0:255 -1:255 32 0] 
f 0.203746824 _9_ RTR  --- 0 undefined 20 [0 ffffffff 6 800] ------- [0:255 -1:255 32 0] 
r 0.203746824 _11_ RTR  --- 0 undefined 20 [0 ffffffff 6 800] ------- [0:255 -1:255 32 0] 
f 0.203746824 _11_ RTR  --- 0 undefined 20 [0 ffffffff 6 800] ------- [0:255 -1:255 32 0] 
r 0.204470991 _5_ RTR  --- 0 undefined 20 [0 ffffffff 9 800] ------- [0:255 -1:255 32 0] 
r 0.204470991 _10_ RTR  --- 0 undefined 20 [0 ffffffff 9 800] ------- [0:255 -1:255 32 0] 
r 0.204470991 _13_ RTR  --- 0 undefined 20 [0 ffffffff 9 800] ------- [0:255 -1:255 32 0] 
f 0.204470991 _13_ RTR  --- 0 undefined 20 [0 ffffffff 9 800] ------- [0:255 -1:255 32 0] 
r 0.204471060 _6_ RTR  --- 0 undefined 20 [0 ffffffff 9 800] ------- [0:255 -1:255 32 0] 
r 0.204471060 _14_ RTR  --- 0 undefined 20 [0 ffffffff 9 800] ------- [0:255 -1:255 32 0] 
f 0.204471060 _14_ RTR  --- 0 undefined 20 [0 ffffffff 9 800] ------- [0:255 -1:255 32 0] 
r 0.205205158 _1_ RTR  --- 0 undefined 20 [0 ffffffff 5 800] ------- [0:255 -1:255 32 0] 
r 0.205205158 _6_ RTR  --- 0 undefined 20 [0 ffffffff 5 800] ------- [0:255 -1:255 32 0] 
r 0.205205158 _9_ RTR  --- 0 undefined 20 [0 ffffffff 5 800] ------- [0:255 -1:255 32 0] 
r 0.205205227 _2_ RTR  --- 0 undefined 20 [0 ffffffff 5 800] ------- [0:255 -1:255 32 0] 
r 0.205205227 _10_ RTR  --- 0 undefined 20 [0 ffffffff 5 800] ------- [0:255 -1:255 32 0] 
r 0.206119393 _9_ RTR  --- 0 undefined 20 [0 ffffffff a 800] ------- [0:255 -1:255 32 0] 
r 0.206119393 _6_ RTR  --- 0 undefined 20 [0 ffffffff a 800] ------- [0:255 -1:255 32 0] 
r 0.206119393 _11_ RTR  --- 0 undefined 20 [0 ffffffff a 800] ------- [0:255 -1:255 32 0] 
r 0.206119393 _14_ RTR  --- 0 undefined 20 [0 ffffffff a 800] ------- [0:255 -1:255 32 0] 
r 0.206119462 _7_ RTR  --- 0 undefined 20 [0 ffffffff a 800] ------- [0:255 -1:255 32 0] 
r 0.206119462 _5_ RTR  --- 0 undefined 20 [0 ffffffff a 800] ------- [0:255 -1:255 32 0] 
r 0.206119462 _13_ RTR  --- 0 undefined 20 [0 ffffffff a 800] ------- [0:255 -1:255 32 0] 
r 0.206119462 _15_ RTR  --- 0 undefined 20 [0 ffffffff a 800] ------- [0:255 -1:255 32 0] 
f 0.206119462 _15_ RTR  --- 0 undefined 20 [0 ffffffff a 800] ------- [0:255 -1:255 32 0] 
r 0.206813560 _13_ RTR  --- 0 undefined 20 [0 ffffffff e 800] ------- [0:255 -1:255 32 0] 
r 0.206813560 _10_ RTR  --- 0 undefined 20 [0 ffffffff e 800] ------- [0:255 -1:255 32 0] 
r 0.206813560 _15_ RTR  --- 0 undefined 20 [0 ffffffff e 800] ------- [0:255 -1:255 32 0] 
r 0.206813560 _18_ RTR  --- 0 undefined 20 [0 ffffffff e 800] ------- [0:255 -1:255 32 0] 
f 0.206813560 _18_ RTR  --- 0 undefined 20 [0 ffffffff e 800] ------- [0:255 -1:255 32 0] 
r 0.206813629 _11_ RTR  --- 0 undefined 20 [0 ffffffff e 800] ------- [0:255 -1:255 32 0] 
r 0.206813629 _9_ RTR  --- 0 undefined 20 [0 ffffffff e 800] ------- [0:255 -1:255 32 0] 
r 0.206813629 _17_ RTR  --- 0 undefined 20 [0 ffffffff e 800] ------- [0:255 -1:255 32 0] 
f 0.206813629 _17_ RTR  --- 0 undefined 20 [0 ffffffff e 800] ------- [0:255 -1:255 32 0] 
r 0.206813629 _19_ RTR  --- 0 undefined 20 [0 ffffffff e 800] ------- [0:255 -1:255 32 0] 
f 0.206813629 _19_ RTR  --- 0 undefined 20 [0 ffffffff e 800] ------- [0:255 -1:255 32 0] 
r 0.207577727 _17_ RTR  --- 0 undefined 20 [0 ffffffff 12 800] ------- [0:255 -1:255 32 0] 
r 0.207577727 _14_ RTR  --- 0 undefined 20 [0 ffffffff 12 800] ------- [0:255 -1:255 32 0] 
r 0.207577727 _19_ RTR  --- 0 undefined 20 [0 ffffffff 12 800] ------- [0:255 -1:255 32 0] 
r 0.207577746 _21_ RTR  --- 0 undefined 20 [0 ffffffff 12 800] ------- [0:255 -1:255 32 0] 
f 0.207577746 _21_ RTR  --- 0 undefined 20 [0 ffffffff 12 800] ------- [0:255 -1:255 32 0] 
r 0.207577746 _22_ RTR  --- 0 undefined 20 [0 ffffffff 12 800] ------- [0:255 -1:255 32 0] 
f 0.207577746 _22_ RTR  --- 0 undefined 20 [0 ffffffff 12 800] ------- [0:255 -1:255 32 0] 
r 0.207577796 _15_ RTR  --- 0 undefined 20 [0 ffffffff 12 800] ------- [0:255 -1:255 32 0] 
r 0.207577796 _13_ RTR  --- 0 undefined 20 [0 ffffffff 12 800] ------- [0:255 -1:255 32 0] 
r 0.208291962 _14_ RTR  --- 0 undefined 20 [0 ffffffff f 800] ------- [0:255 -1:255 32 0] 
r 0.208291962 _11_ RTR  --- 0 undefined 20 [0 ffffffff f 800] ------- [0:255 -1:255 32 0] 
r 0.208291962 _16_ RTR  --- 0 undefined 20 [0 ffffffff f 800] ------- [0:255 -1:255 32 0] 
f 0.208291962 _16_ RTR  --- 0 undefined 20 [0 ffffffff f 800] ------- [0:255 -1:255 32 0] 
r 0.208291962 _19_ RTR  --- 0 undefined 20 [0 ffffffff f 800] ------- [0:255 -1:255 32 0] 
r 0.208292032 _12_ RTR  --- 0 undefined 20 [0 ffffffff f 800] ------- [0:255 -1:255 32 0] 
f 0.208292032 _12_ RTR  --- 0 undefined 20 [0 ffffffff f 800] ------- [0:255 -1:255 32 0] 
r 0.208292032 _10_ RTR  --- 0 undefined 20 [0 ffffffff f 800] ------- [0:255 -1:255 32 0] 
r 0.208292032 _18_ RTR  --- 0 undefined 20 [0 ffffffff f 800] ------- [0:255 -1:255 32 0] 
r 0.208292032 _20_ RTR  --- 0 undefined 20 [0 ffffffff f 800] ------- [0:255 -1:255 32 0] 
f 0.208292032 _20_ RTR  --- 0 undefined 20 [0 ffffffff f 800] ------- [0:255 -1:255 32 0] 
r 0.209006129 _18_ RTR  --- 0 undefined 20 [0 ffffffff 13 800] ------- [0:255 -1:255 32 0] 
r 0.209006129 _15_ RTR  --- 0 undefined 20 [0 ffffffff 13 800] ------- [0:255 -1:255 32 0] 
r 0.209006129 _20_ RTR  --- 0 undefined 20 [0 ffffffff 13 800] ------- [0:255 -1:255 32 0] 
r 0.209006149 _22_ RTR  --- 0 undefined 20 [0 ffffffff 13 800] ------- [0:255 -1:255 32 0] 
r 0.209006149 _23_ RTR  --- 0 undefined 20 [0 ffffffff 13 800] ------- [0:255 -1:255 32 0] 
f 0.209006149 _23_ RTR  --- 0 undefined 20 [0 ffffffff 13 800] ------- [0:255 -1:255 32 0] 
r 0.209006198 _16_ RTR  --- 0 undefined 20 [0 ffffffff 13 800] ------- [0:255 -1:255 32 0] 
r 0.209006198 _14_ RTR  --- 0 undefined 20 [0 ffffffff 13 800] ------- [0:255 -1:255 32 0] 
r 0.209760315 _21_ RTR  --- 0 undefined 20 [0 ffffffff 16 800] ------- [0:255 -1:255 32 0] 
r 0.209760315 _23_ RTR  --- 0 undefined 20 [0 ffffffff 16 800] ------- [0:255 -1:255 32 0] 
r 0.209760335 _19_ RTR  --- 0 undefined 20 [0 ffffffff 16 800] ------- [0:255 -1:255 32 0] 
r 0.209760335 _18_ RTR  --- 0 undefined 20 [0 ffffffff 16 800] ------- [0:255 -1:255 32 0] 
r 0.210534502 _17_ RTR  --- 0 undefined 20 [0 ffffffff 15 800] ------- [0:255 -1:255 32 0] 
r 0.210534502 _20_ RTR  --- 0 undefined 20 [0 ffffffff 17 800] ------- [0:255 -1:255 32 0] 
r 0.211593352 _2_ RTR  --- 0 undefined 20 [0 ffffffff 3 800] ------- [0:255 -1:255 32 0] 
r 0.211593352 _4_ RTR  --- 0 undefined 20 [0 ffffffff 3 800] ------- [0:255 -1:255 32 0] 
f 0.211593352 _4_ RTR  --- 0 undefined 20 [0 ffffffff 3 800] ------- [0:255 -1:255 32 0] 
r 0.211593352 _7_ RTR  --- 0 undefined 20 [0 ffffffff 3 800] ------- [0:255 -1:255 32 0] 
r 0.211593372 _0_ RTR  --- 0 undefined 20 [0 ffffffff 3 800] ------- [0:255 -1:255 32 0] 
r 0.211593421 _6_ RTR  --- 0 undefined 20 [0 ffffffff 3 800] ------- [0:255 -1:255 32 0] 
r 0.211593421 _8_ RTR  --- 0 undefined 20 [0 ffffffff 3 800] ------- [0:255 -1:255 32 0] 
f 0.211593421 _8_ RTR  --- 0 undefined 20 [0 ffffffff 3 800] ------- [0:255 -1:255 32 0] 
r 0.212347519 _6_ RTR  --- 0 undefined 20 [0 ffffffff 7 800] ------- [0:255 -1:255 32 0] 
r 0.212347519 _3_ RTR  --- 0 undefined 20 [0 ffffffff 7 800] ------- [0:255 -1:255 32 0] 
r 0.212347519 _8_ RTR  --- 0 undefined 20 [0 ffffffff 7 800] ------- [0:255 -1:255 32 0] 
r 0.212347519 _11_ RTR  --- 0 undefined 20 [0 ffffffff 7 800] ------- [0:255 -1:255 32 0] 
r 0.212347588 _4_ RTR  --- 0 undefined 20 [0 ffffffff 7 800] ------- [0:255 -1:255 32 0] 
r 0.212347588 _2_ RTR  --- 0 undefined 20 [0 ffffffff 7 800] ------- [0:255 -1:255 32 0] 
r 0.212347588 _10_ RTR  --- 0 undefined 20 [0 ffffffff 7 800] ------- [0:255 -1:255 32 0] 
r 0.212347588 _12_ RTR  --- 0 undefined 20 [0 ffffffff 7 800] ------- [0:255 -1:255 32 0] 
r 0.213061755 _11_ RTR  --- 0 undefined 20 [0 ffffffff c 800] ------- [0:255 -1:255 32 0] 
r 0.213061755 _8_ RTR  --- 0 undefined 20 [0 ffffffff c 800] ------- [0:255 -1:255 32 0] 
r 0.213061755 _16_ RTR  --- 0 undefined 20 [0 ffffffff c 800] ------- [0:255 -1:255 32 0] 
r 0.213061824 _7_ RTR  --- 0 undefined 20 [0 ffffffff c 800] ------- [0:255 -1:255 32 0] 
r 0.213061824 _15_ RTR  --- 0 undefined 20 [0 ffffffff c 800] ------- [0:255 -1:255 32 0] 
r 0.213775921 _10_ RTR  --- 0 undefined 20 [0 ffffffff b 800] ------- [0:255 -1:255 32 0] 
r 0.213775921 _7_ RTR  --- 0 undefined 20 [0 ffffffff b 800] ------- [0:255 -1:255 32 0] 
r 0.213775921 _12_ RTR  --- 0 undefined 20 [0 ffffffff b 800] ------- [0:255 -1:255 32 0] 
r 0.213775921 _15_ RTR  --- 0 undefined 20 [0 ffffffff b 800] ------- [0:255 -1:255 32 0] 
r 0.213775990 _8_ RTR  --- 0 undefined 20 [0 ffffffff b 800] ------- [0:255 -1:255 32 0] 
r 0.213775990 _6_ RTR  --- 0 undefined 20 [0 ffffffff b 800] ------- [0:255 -1:255 32 0] 
r 0.213775990 _14_ RTR  --- 0 undefined 20 [0 ffffffff b 800] ------- [0:255 -1:255 32 0] 
r 0.213775990 _16_ RTR  --- 0 undefined 20 [0 ffffffff b 800] ------- [0:255 -1:255 32 0] 
r 0.214510157 _15_ RTR  --- 0 undefined 20 [0 ffffffff 10 800] ------- [0:255 -1:255 32 0] 
r 0.214510157 _12_ RTR  --- 0 undefined 20 [0 ffffffff 10 800] ------- [0:255 -1:255 32 0] 
r 0.214510157 _20_ RTR  --- 0 undefined 20 [0 ffffffff 10 800] ------- [0:255 -1:255 32 0] 
r 0.214510226 _11_ RTR  --- 0 undefined 20 [0 ffffffff 10 800] ------- [0:255 -1:255 32 0] 
r 0.214510226 _19_ RTR  --- 0 undefined 20 [0 ffffffff 10 800] ------- [0:255 -1:255 32 0] 
r 0.215424324 _19_ RTR  --- 0 undefined 20 [0 ffffffff 14 800] ------- [0:255 -1:255 32 0] 
r 0.215424324 _16_ RTR  --- 0 undefined 20 [0 ffffffff 14 800] ------- [0:255 -1:255 32 0] 
r 0.215424343 _23_ RTR  --- 0 undefined 20 [0 ffffffff 14 800] ------- [0:255 -1:255 32 0] 
r 0.215424393 _15_ RTR  --- 0 undefined 20 [0 ffffffff 14 800] ------- [0:255 -1:255 32 0] 
r 0.216582851 _9_ RTR  --- 0 undefined 20 [0 ffffffff d 800] ------- [0:255 -1:255 32 0] 
r 0.216582851 _14_ RTR  --- 0 undefined 20 [0 ffffffff d 800] ------- [0:255 -1:255 32 0] 
r 0.216582851 _17_ RTR  --- 0 undefined 20 [0 ffffffff d 800] ------- [0:255 -1:255 32 0] 
r 0.216582920 _10_ RTR  --- 0 undefined 20 [0 ffffffff d 800] ------- [0:255 -1:255 32 0] 
r 0.216582920 _18_ RTR  --- 0 undefined 20 [0 ffffffff d 800] ------- [0:255 -1:255 32 0] 
r 0.217497017 _13_ RTR  --- 0 undefined 20 [0 ffffffff 11 800] ------- [0:255 -1:255 32 0] 
r 0.217497017 _18_ RTR  --- 0 undefined 20 [0 ffffffff 11 800] ------- [0:255 -1:255 32 0] 
r 0.217497037 _21_ RTR  --- 0 undefined 20 [0 ffffffff 11 800] ------- [0:255 -1:255 32 0] 
r 0.217497086 _14_ RTR  --- 0 undefined 20 [0 ffffffff 11 800] ------- [0:255 -1:255 32 0] 
s 0.300000000 _0_ RTR  --- 0 undefined 20 [0 0 0 0] ------- [0:255 -1:255 32 0] 
r 0.301164186 _2_ RTR  --- 0 undefined 20 [0 ffffffff 0 800] ------- [0:255 -1:255 32 0] 
f 0.301164186 _2_ RTR  --- 0 undefined 20 [0 ffffffff 0 800] ------- [0:255 -1:255 32 0] 
r 0.301164186 _3_ RTR  --- 0 undefined 20 [0 ffffffff 0 800] ------- [0:255 -1:255 32 0] 
f 0.301164186 _3_ RTR  --- 0 undefined 20 [0 ffffffff 0 800] ------- [0:255 -1:255 32 0] 
r 0.302008353 _1_ RTR  --- 0 undefined 20 [0 ffffffff 2 800] ------- [0:255 -1:255 32 0] 
f 0.302008353 _1_ RTR  --- 0 undefined 20 [0 ffffffff 2 800] ------- [0:255 -1:255 32 0] 
r 0.302008353 _3_ RTR  --- 0 undefined 20 [0 ffffffff 2 800] ------- [0:255 -1:255 32 0] 
r 0.302008353 _6_ RTR  --- 0 undefined 20 [0 ffffffff 2 800] ------- [0:255 -1:255 32 0] 
f 0.302008353 _6_ RTR  --- 0 undefined 20 [0 ffffffff 2 800] ------- [0:255 -1:255 32 0] 
r 0.302008373 _0_ RTR  --- 0 undefined 20 [0 ffffffff 2 800] ------- [0:255 -1:255 32 0] 
r 0.302008422 _5_ RTR  --- 0 undefined 20 [0 ffffffff 2 800] ------- [0:255 -1:255 32 0] 
f 0.302008422 _5_ RTR  --- 0 undefined 20 [0 ffffffff 2 800] ------- [0:255 -1:255 32 0] 
r 0.302008422 _7_ RTR  --- 0 undefined 20 [0 ffffffff 2 800] ------- [0:255 -1:255 32 0] 
f 0.302008422 _7_ RTR  --- 0 undefined 20 [0 ffffffff 2 800] ------- [0:255 -1:255 32 0] 
r 0.302722520 _2_ RTR  --- 0 undefined 20 [0 ffffffff 3 800] ------- [0:255 -1:255 32 0] 
r 0.302722520 _4_ RTR  --- 0 undefined 20 [0 ffffffff 3 800] ------- [0:255 -1:255 32 0] 
f 0.302722520 _4_ RTR  --- 0 undefined 20 [0 ffffffff 3 800] ------- [0:255 -1:255 32 0] 
r 0.302722520 _7_ RTR  --- 0 undefined 20 [0 ffffffff 3 800] ------- [0:255 -1:255 32 0] 
r 0.302722539 _0_ RTR  --- 0 undefined 20 [0 ffffffff 3 800] ------- [0:255 -1:255 32 0] 
r 0.302722589 _6_ RTR  --- 0 undefined 20 [0 ffffffff 3 800] ------- [0:255 -1:255 32 0] 
r 0.302722589 _8_ RTR  --- 0 undefined 20 [0 ffffffff 3 800] ------- [0:255 -1:255 32 0] 
f 0.302722589 _8_ RTR  --- 0 undefined 20 [0 ffffffff 3 800] ------- [0:255 -1:255 32 0] 
r 0.303536755 _5_ RTR  --- 0 undefined 20 [0 ffffffff 6 800] ------- [0:255 -1:255 32 0] 
r 0.303536755 _2_ RTR  --- 0 undefined 20 [0 ffffffff 6 800] ------- [0:255 -1:255 32 0] 
r 0.303536755 _7_ RTR  --- 0 undefined 20 [0 ffffffff 6 800] ------- [0:255 -1:255 32 0] 
r 0.303536755 _10_ RTR  --- 0 undefined 20 [0 ffffffff 6 800] ------- [0:255 -1:255 32 0] 
f 0.303536755 _10_ RTR  --- 0 undefined 20 [0 ffffffff 6 800] ------- [0:255 -1:255 32 0] 
r 0.303536824 _3_ RTR  --- 0 undefined 20 [0 ffffffff 6 800] ------- [0:255 -1:255 32 0] 
r 0.303536824 _1_ RTR  --- 0 undefined 20 [0 ffffffff 6 800] ------- [0:255 -1:255 32 0] 
r 0.303536824 _9_ RTR  --- 0 undefined 20 [0 ffffffff 6 800] ------- [0:255 -1:255 32 0] 
f 0.303536824 _9_ RTR  --- 0 undefined 20 [0 ffffffff 6 800] ------- [0:255 -1:255 32 0] 
r 0.303536824 _11_ RTR  --- 0 undefined 20 [0 ffffffff 6 800] ------- [0:255 -1:255 32 0] 
f 0.303536824 _11_ RTR  --- 0 undefined 20 [0 ffffffff 6 800] ------- [0:255 -1:255 32 0] 
r 0.304210991 _2_ RTR  --- 0 undefined 20 [0 ffffffff 1 800] ------- [0:255 -1:255 32 0] 
r 0.304210991 _5_ RTR  --- 0 undefined 20 [0 ffffffff 1 800] ------- [0:255 -1:255 32 0] 
r 0.304211060 _6_ RTR  --- 0 undefined 20 [0 ffffffff 1 800] ------- [0:255 -1:255 32 0] 
r 0.305245158 _1_ RTR  --- 0 undefined 20 [0 ffffffff 5 800] ------- [0:255 -1:255 32 0] 
r 0.305245158 _6_ RTR  --- 0 undefined 20 [0 ffffffff 5 800] ------- [0:255 -1:255 32 0] 
r 0.305245158 _9_ RTR  --- 0 undefined 20 [0 ffffffff 5 800] ------- [0:255 -1:255 32 0] 
r 0.305245227 _2_ RTR  --- 0 undefined 20 [0 ffffffff 5 800] ------- [0:255 -1:255 32 0] 
r 0.305245227 _10_ RTR  --- 0 undefined 20 [0 ffffffff 5 800] ------- [0:255 -1:255 32 0] 
r 0.305939393 _9_ RTR  --- 0 undefined 20 [0 ffffffff a 800] ------- [0:255 -1:255 32 0] 
r 0.305939393 _6_ RTR  --- 0 undefined 20 [0 ffffffff a 800] ------- [0:255 -1:255 32 0] 
r 0.305939393 _11_ RTR  --- 0 undefined 20 [0 ffffffff a 800] ------- [0:255 -1:255 32 0] 
r 0.305939393 _14_ RTR  --- 0 undefined 20 [0 ffffffff a 800] ------- [0:255 -1:255 32 0] 
f 0.305939393 _14_ RTR  --- 0 undefined 20 [0 ffffffff a 800] ------- [0:255 -1:255 32 0] 
r 0.305939462 _7_ RTR  --- 0 undefined 20 [0 ffffffff a 800] ------- [0:255 -1:255 32 0] 
r 0.305939462 _5_ RTR  --- 0 undefined 20 [0 ffffffff a 800] ------- [0:255 -1:255 32 0] 
r 0.305939462 _13_ RTR  --- 0 undefined 20 [0 ffffffff a 800] ------- [0:255 -1:255 32 0] 
f 0.305939462 _13_ RTR  --- 0 undefined 20 [0 ffffffff a 800] ------- [0:255 -1:255 32 0] 
r 0.305939462 _15_ RTR  --- 0 undefined 20 [0 ffffffff a 800] ------- [0:255 -1:255 32 0] 
f 0.305939462 _15_ RTR  --- 0 undefined 20 [0 ffffffff a 800] ------- [0:255 -1:255 32 0] 
r 0.306683629 _14_ RTR  --- 0 undefined 20 [0 ffffffff f 800] ------- [0:255 -1:255 32 0] 
r 0.306683629 _11_ RTR  --- 0 undefined 20 [0 ffffffff f 800] ------- [0:255 -1:255 32 0] 
r 0.306683629 _16_ RTR  --- 0 undefined 20 [0 ffffffff f 800] ------- [0:255 -1:255 32 0] 
f 0.306683629 _16_ RTR  --- 0 undefined 20 [0 ffffffff f 800] ------- [0:255 -1:255 32 0] 
r 0.306683629 _19_ RTR  --- 0 undefined 20 [0 ffffffff f 800] ------- [0:255 -1:255 32 0] 
f 0.306683629 _19_ RTR  --- 0 undefined 20 [0 ffffffff f 800] ------- [0:255 -1:255 32 0] 
r 0.306683698 _12_ RTR  --- 0 undefined 20 [0 ffffffff f 800] ------- [0:255 -1:255 32 0] 