n -t * -s 0  -x 0 -y 175 -Z 0 -z 10  -v circle -c black
n -t * -s 1  -x 50 -y 100 -Z 0 -z 10  -v circle -c black
n -t * -s 2  -x 50 -y 150 -Z 0 -z 10  -v circle -c black
n -t * -s 3  -x 50 -y 200 -Z 0 -z 10  -v circle -c black
n -t * -s 4  -x 50 -y 250 -Z 0 -z 10  -v circle -c black
n -t * -s 5  -x 100 -y 100 -Z 0 -z 10  -v circle -c black
n -t * -s 6  -x 100 -y 150 -Z 0 -z 10  -v circle -c black
n -t * -s 7  -x 100 -y 200 -Z 0 -z 10  -v circle -c black
n -t * -s 8  -x 100 -y 250 -Z 0 -z 10  -v circle -c black
n -t * -s 9  -x 150 -y 100 -Z 0 -z 10  -v circle -c black
n -t * -s 10  -x 150 -y 150 -Z 0 -z 10  -v circle -c black
n -t * -s 11  -x 150 -y 200 -Z 0 -z 10  -v circle -c black
n -t * -s 12  -x 150 -y 250 -Z 0 -z 10  -v circle -c black
n -t * -s 13  -x 200 -y 100 -Z 0 -z 10  -v circle -c black
n -t * -s 14  -x 200 -y 150 -Z 0 -z 10  -v circle -c black
n -t * -s 15  -x 200 -y 200 -Z 0 -z 10  -v circle -c black
n -t * -s 16  -x 200 -y 250 -Z 0 -z 10  -v circle -c black
n -t * -s 17  -x 250 -y 100 -Z 0 -z 10  -v circle -c black
n -t * -s 18  -x 250 -y 150 -Z 0 -z 10  -v circle -c black
n -t * -s 19  -x 250 -y 200 -Z 0 -z 10  -v circle -c black
n -t * -s 20  -x 250 -y 250 -Z 0 -z 10  -v circle -c black
n -t * -s 21  -x 300 -y 125 -Z 0 -z 10  -v circle -c black
n -t * -s 22  -x 300 -y 175 -Z 0 -z 10  -v circle -c black
n -t * -s 23  -x 300 -y 225 -Z 0 -z 10  -v circle -c black
V -t * -v 1.0a5 -a 0
W -t * -x 500 -y 500
A -t * -n 1 -p 0 -o 0x7fffffff -c 30 -a 1
A -t * -h 1 -m 1073741823 -s 0
+ -t 0.100000000 -s 0 -d -1 -p undefined -e 20 -c 2 -a 0 -i 0 -k RTR 
- -t 0.100000000 -s 0 -d -1 -p undefined -e 20 -c 2 -a 0 -i 0 -k RTR
h -t 0.100000000 -s 0 -d -1 -p undefined -e 20 -c 2 -a 0 -i 0 -k RTR
r -t 0.101184186 -s 2 -d -1 -p undefined -e 20 -c 2 -a 0 -i 0 -k RTR
+ -t 0.101184186 -s 2 -d -1 -p undefined -e 20 -c 2 -a 0 -i 0 -k RTR 
- -t 0.101184186 -s 2 -d -1 -p undefined -e 20 -c 2 -a 0 -i 0 -k RTR
h -t 0.101184186 -s 2 -d -1 -p undefined -e 20 -c 2 -a 0 -i 0 -k RTR
r -t 0.101184186 -s 3 -d -1 -p undefined -e 20 -c 2 -a 0 -i 0 -k RTR
+ -t 0.101184186 -s 3 -d -1 -p undefined -e 20 -c 2 -a 0 -i 0 -k RTR 
- -t 0.101184186 -s 3 -d -1 -p undefined -e 20 -c 2 -a 0 -i 0 -k RTR
h -t 0.101184186 -s 3 -d -1 -p undefined -e 20 -c 2 -a 0 -i 0 -k RTR
r -t 0.102208353 -s 2 -d -1 -p undefined -e 20 -c 2 -a 0 -i 0 -k RTR
r -t 0.102208353 -s 4 -d -1 -p undefined -e 20 -c 2 -a 0 -i 0 -k RTR
+ -t 0.102208353 -s 4 -d -1 -p undefined -e 20 -c 2 -a 0 -i 0 -k RTR 
- -t 0.102208353 -s 4 -d -1 -p undefined -e 20 -c 2 -a 0 -i 0 -k RTR
h -t 0.102208353 -s 4 -d -1 -p undefined -e 20 -c 2 -a 0 -i 0 -k RTR
r -t 0.102208353 -s 7 -d -1 -p undefined -e 20 -c 2 -a 0 -i 0 -k RTR
+ -t 0.102208353 -s 7 -d -1 -p undefined -e 20 -c 2 -a 0 -i 0 -k RTR 
- -t 0.102208353 -s 7 -d -1 -p undefined -e 20 -c 2 -a 0 -i 0 -k RTR
h -t 0.102208353 -s 7 -d -1 -p undefined -e 20 -c 2 -a 0 -i 0 -k RTR
r -t 0.102208373 -s 0 -d -1 -p undefined -e 20 -c 2 -a 0 -i 0 -k RTR
r -t 0.102208422 -s 6 -d -1 -p undefined -e 20 -c 2 -a 0 -i 0 -k RTR
+ -t 0.102208422 -s 6 -d -1 -p undefined -e 20 -c 2 -a 0 -i 0 -k RTR 
- -t 0.102208422 -s 6 -d -1 -p undefined -e 20 -c 2 -a 0 -i 0 -k RTR
h -t 0.102208422 -s 6 -d -1 -p undefined -e 20 -c 2 -a 0 -i 0 -k RTR
r -t 0.102208422 -s 8 -d -1 -p undefined -e 20 -c 2 -a 0 -i 0 -k RTR
+ -t 0.102208422 -s 8 -d -1 -p undefined -e 20 -c 2 -a 0 -i 0 -k RTR 
- -t 0.102208422 -s 8 -d -1 -p undefined -e 20 -c 2 -a 0 -i 0 -k RTR
h -t 0.102208422 -s 8 -d -1 -p undefined -e 20 -c 2 -a 0 -i 0 -k RTR
r -t 0.102932520 -s 3 -d -1 -p undefined -e 20 -c 2 -a 0 -i 0 -k RTR
r -t 0.102932520 -s 8 -d -1 -p undefined -e 20 -c 2 -a 0 -i 0 -k RTR
r -t 0.102932589 -s 7 -d -1 -p undefined -e 20 -c 2 -a 0 -i 0 -k RTR
r -t 0.103766755 -s 6 -d -1 -p undefined -e 20 -c 2 -a 0 -i 0 -k RTR
r -t 0.103766755 -s 3 -d -1 -p undefined -e 20 -c 2 -a 0 -i 0 -k RTR
r -t 0.103766755 -s 8 -d -1 -p undefined -e 20 -c 2 -a 0 -i 0 -k RTR
r -t 0.103766755 -s 11 -d -1 -p undefined -e 20 -c 2 -a 0 -i 0 -k RTR
+ -t 0.103766755 -s 11 -d -1 -p undefined -e 20 -c 2 -a 0 -i 0 -k RTR 
- -t 0.103766755 -s 11 -d -1 -p undefined -e 20 -c 2 -a 0 -i 0 -k RTR
h -t 0.103766755 -s 11 -d -1 -p undefined -e 20 -c 2 -a 0 -i 0 -k RTR
r -t 0.103766824 -s 4 -d -1 -p undefined -e 20 -c 2 -a 0 -i 0 -k RTR
r -t 0.103766824 -s 2 -d -1 -p undefined -e 20 -c 2 -a 0 -i 0 -k RTR
r -t 0.103766824 -s 10 -d -1 -p undefined -e 20 -c 2 -a 0 -i 0 -k RTR
+ -t 0.103766824 -s 10 -d -1 -p undefined -e 20 -c 2 -a 0 -i 0 -k RTR 
- -t 0.103766824 -s 10 -d -1 -p undefined -e 20 -c 2 -a 0 -i 0 -k RTR
h -t 0.103766824 -s 10 -d -1 -p undefined -e 20 -c 2 -a 0 -i 0 -k RTR
r -t 0.103766824 -s 12 -d -1 -p undefined -e 20 -c 2 -a 0 -i 0 -k RTR
+ -t 0.103766824 -s 12 -d -1 -p undefined -e 20 -c 2 -a 0 -i 0 -k RTR 
- -t 0.103766824 -s 12 -d -1 -p undefined -e 20 -c 2 -a 0 -i 0 -k RTR
h -t 0.103766824 -s 12 -d -1 -p undefined -e 20 -c 2 -a 0 -i 0 -k RTR
r -t 0.104520922 -s 7 -d -1 -p undefined -e 20 -c 2 -a 0 -i 0 -k RTR
r -t 0.104520922 -s 4 -d -1 -p undefined -e 20 -c 2 -a 0 -i 0 -k RTR
r -t 0.104520922 -s 12 -d -1 -p undefined -e 20 -c 2 -a 0 -i 0 -k RTR
r -t 0.104520991 -s 3 -d -1 -p undefined -e 20 -c 2 -a 0 -i 0 -k RTR
r -t 0.104520991 -s 11 -d -1 -p undefined -e 20 -c 2 -a 0 -i 0 -k RTR
r -t 0.105415158 -s 10 -d -1 -p undefined -e 20 -c 2 -a 0 -i 0 -k RTR
r -t 0.105415158 -s 7 -d -1 -p undefined -e 20 -c 2 -a 0 -i 0 -k RTR
r -t 0.105415158 -s 12 -d -1 -p undefined -e 20 -c 2 -a 0 -i 0 -k RTR
r -t 0.105415158 -s 15 -d -1 -p undefined -e 20 -c 2 -a 0 -i 0 -k RTR
+ -t 0.105415158 -s 15 -d -1 -p undefined -e 20 -c 2 -a 0 -i 0 -k RTR 
- -t 0.105415158 -s 15 -d -1 -p undefined -e 20 -c 2 -a 0 -i 0 -k RTR
h -t 0.105415158 -s 15 -d -1 -p undefined -e 20 -c 2 -a 0 -i 0 -k RTR
r -t 0.105415227 -s 8 -d -1 -p undefined -e 20 -c 2 -a 0 -i 0 -k RTR
r -t 0.105415227 -s 6 -d -1 -p undefined -e 20 -c 2 -a 0 -i 0 -k RTR
r -t 0.105415227 -s 14 -d -1 -p undefined -e 20 -c 2 -a 0 -i 0 -k RTR
+ -t 0.105415227 -s 14 -d -1 -p undefined -e 20 -c 2 -a 0 -i 0 -k RTR 
- -t 0.105415227 -s 14 -d -1 -p undefined -e 20 -c 2 -a 0 -i 0 -k RTR
h -t 0.105415227 -s 14 -d -1 -p undefined -e 20 -c 2 -a 0 -i 0 -k RTR
r -t 0.105415227 -s 16 -d -1 -p undefined -e 20 -c 2 -a 0 -i 0 -k RTR
+ -t 0.105415227 -s 16 -d -1 -p undefined -e 20 -c 2 -a 0 -i 0 -k RTR 
- -t 0.105415227 -s 16 -d -1 -p undefined -e 20 -c 2 -a 0 -i 0 -k RTR
h -t 0.105415227 -s 16 -d -1 -p undefined -e 20 -c 2 -a 0 -i 0 -k RTR
r -t 0.106109324 -s 9 -d -1 -p undefined -e 20 -c 2 -a 0 -i 0 -k RTR
+ -t 0.106109324 -s 9 -d -1 -p undefined -e 20 -c 2 -a 0 -i 0 -k RTR 
- -t 0.106109324 -s 9 -d -1 -p undefined -e 20 -c 2 -a 0 -i 0 -k RTR
h -t 0.106109324 -s 9 -d -1 -p undefined -e 20 -c 2 -a 0 -i 0 -k RTR
r -t 0.106109324 -s 6 -d -1 -p undefined -e 20 -c 2 -a 0 -i 0 -k RTR
r -t 0.106109324 -s 11 -d -1 -p undefined -e 20 -c 2 -a 0 -i 0 -k RTR
r -t 0.106109324 -s 14 -d -1 -p undefined -e 20 -c 2 -a 0 -i 0 -k RTR
r -t 0.106109393 -s 7 -d -1 -p undefined -e 20 -c 2 -a 0 -i 0 -k RTR
r -t 0.106109393 -s 5 -d -1 -p undefined -e 20 -c 2 -a 0 -i 0 -k RTR
+ -t 0.106109393 -s 5 -d -1 -p undefined -e 20 -c 2 -a 0 -i 0 -k RTR 
- -t 0.106109393 -s 5 -d -1 -p undefined -e 20 -c 2 -a 0 -i 0 -k RTR
h -t 0.106109393 -s 5 -d -1 -p undefined -e 20 -c 2 -a 0 -i 0 -k RTR
r -t 0.106109393 -s 13 -d -1 -p undefined -e 20 -c 2 -a 0 -i 0 -k RTR
+ -t 0.106109393 -s 13 -d -1 -p undefined -e 20 -c 2 -a 0 -i 0 -k RTR 
- -t 0.106109393 -s 13 -d -1 -p undefined -e 20 -c 2 -a 0 -i 0 -k RTR
h -t 0.106109393 -s 13 -d -1 -p undefined -e 20 -c 2 -a 0 -i 0 -k RTR
r -t 0.106109393 -s 15 -d -1 -p undefined -e 20 -c 2 -a 0 -i 0 -k RTR
r -t 0.106883491 -s 5 -d -1 -p undefined -e 20 -c 2 -a 0 -i 0 -k RTR
r -t 0.106883491 -s 2 -d -1 -p undefined -e 20 -c 2 -a 0 -i 0 -k RTR
r -t 0.106883491 -s 7 -d -1 -p undefined -e 20 -c 2 -a 0 -i 0 -k RTR
r -t 0.106883491 -s 10 -d -1 -p undefined -e 20 -c 2 -a 0 -i 0 -k RTR
r -t 0.106883560 -s 3 -d -1 -p undefined -e 20 -c 2 -a 0 -i 0 -k RTR
r -t 0.106883560 -s 1 -d -1 -p undefined -e 20 -c 2 -a 0 -i 0 -k RTR
+ -t 0.106883560 -s 1 -d -1 -p undefined -e 20 -c 2 -a 0 -i 0 -k RTR 
- -t 0.106883560 -s 1 -d -1 -p undefined -e 20 -c 2 -a 0 -i 0 -k RTR
h -t 0.106883560 -s 1 -d -1 -p undefined -e 20 -c 2 -a 0 -i 0 -k RTR
r -t 0.106883560 -s 9 -d -1 -p undefined -e 20 -c 2 -a 0 -i 0 -k RTR
r -t 0.106883560 -s 11 -d -1 -p undefined -e 20 -c 2 -a 0 -i 0 -k RTR
r -t 0.107697658 -s 1 -d -1 -p undefined -e 20 -c 2 -a 0 -i 0 -k RTR
r -t 0.107697658 -s 3 -d -1 -p undefined -e 20 -c 2 -a 0 -i 0 -k RTR
r -t 0.107697658 -s 6 -d -1 -p undefined -e 20 -c 2 -a 0 -i 0 -k RTR
r -t 0.107697677 -s 0 -d -1 -p undefined -e 20 -c 2 -a 0 -i 0 -k RTR
r -t 0.107697727 -s 5 -d -1 -p undefined -e 20 -c 2 -a 0 -i 0 -k RTR
r -t 0.107697727 -s 7 -d -1 -p undefined -e 20 -c 2 -a 0 -i 0 -k RTR
r -t 0.108391893 -s 1 -d -1 -p undefined -e 20 -c 2 -a 0 -i 0 -k RTR
r -t 0.108391893 -s 6 -d -1 -p undefined -e 20 -c 2 -a 0 -i 0 -k RTR
r -t 0.108391893 -s 9 -d -1 -p undefined -e 20 -c 2 -a 0 -i 0 -k RTR
r -t 0.108391962 -s 2 -d -1 -p undefined -e 20 -c 2 -a 0 -i 0 -k RTR
r -t 0.108391962 -s 10 -d -1 -p undefined -e 20 -c 2 -a 0 -i 0 -k RTR
r -t 0.109206060 -s 13 -d -1 -p undefined -e 20 -c 2 -a 0 -i 0 -k RTR
r -t 0.109206129 -s 14 -d -1 -p undefined -e 20 -c 2 -a 0 -i 0 -k RTR
r -t 0.110304587 -s 13 -d -1 -p undefined -e 20 -c 2 -a 0 -i 0 -k RTR
r -t 0.110304587 -s 10 -d -1 -p undefined -e 20 -c 2 -a 0 -i 0 -k RTR
r -t 0.110304587 -s 15 -d -1 -p undefined -e 20 -c 2 -a 0 -i 0 -k RTR
r -t 0.110304587 -s 18 -d -1 -p undefined -e 20 -c 2 -a 0 -i 0 -k RTR
+ -t 0.110304587 -s 18 -d -1 -p undefined -e 20 -c 2 -a 0 -i 0 -k RTR 
- -t 0.110304587 -s 18 -d -1 -p undefined -e 20 -c 2 -a 0 -i 0 -k RTR
h -t 0.110304587 -s 18 -d -1 -p undefined -e 20 -c 2 -a 0 -i 0 -k RTR
r -t 0.110304656 -s 11 -d -1 -p undefined -e 20 -c 2 -a 0 -i 0 -k RTR
r -t 0.110304656 -s 9 -d -1 -p undefined -e 20 -c 2 -a 0 -i 0 -k RTR
r -t 0.110304656 -s 17 -d -1 -p undefined -e 20 -c 2 -a 0 -i 0 -k RTR
+ -t 0.110304656 -s 17 -d -1 -p undefined -e 20 -c 2 -a 0 -i 0 -k RTR 
- -t 0.110304656 -s 17 -d -1 -p undefined -e 20 -c 2 -a 0 -i 0 -k RTR
h -t 0.110304656 -s 17 -d -1 -p undefined -e 20 -c 2 -a 0 -i 0 -k RTR
r -t 0.110304656 -s 19 -d -1 -p undefined -e 20 -c 2 -a 0 -i 0 -k RTR
+ -t 0.110304656 -s 19 -d -1 -p undefined -e 20 -c 2 -a 0 -i 0 -k RTR 
- -t 0.110304656 -s 19 -d -1 -p undefined -e 20 -c 2 -a 0 -i 0 -k RTR
h -t 0.110304656 -s 19 -d -1 -p undefined -e 20 -c 2 -a 0 -i 0 -k RTR
r -t 0.111058754 -s 14 -d -1 -p undefined -e 20 -c 2 -a 0 -i 0 -k RTR
r -t 0.111058754 -s 11 -d -1 -p undefined -e 20 -c 2 -a 0 -i 0 -k RTR
r -t 0.111058754 -s 16 -d -1 -p undefined -e 20 -c 2 -a 0 -i 0 -k RTR
r -t 0.111058754 -s 19 -d -1 -p undefined -e 20 -c 2 -a 0 -i 0 -k RTR
r -t 0.111058823 -s 12 -d -1 -p undefined -e 20 -c 2 -a 0 -i 0 -k RTR
r -t 0.111058823 -s 10 -d -1 -p undefined -e 20 -c 2 -a 0 -i 0 -k RTR
r -t 0.111058823 -s 18 -d -1 -p undefined -e 20 -c 2 -a 0 -i 0 -k RTR
r -t 0.111058823 -s 20 -d -1 -p undefined -e 20 -c 2 -a 0 -i 0 -k RTR
+ -t 0.111058823 -s 20 -d -1 -p undefined -e 20 -c 2 -a 0 -i 0 -k RTR 
- -t 0.111058823 -s 20 -d -1 -p undefined -e 20 -c 2 -a 0 -i 0 -k RTR
h -t 0.111058823 -s 20 -d -1 -p undefined -e 20 -c 2 -a 0 -i 0 -k RTR
r -t 0.111922990 -s 19 -d -1 -p undefined -e 20 -c 2 -a 0 -i 0 -k RTR
r -t 0.111922990 -s 16 -d -1 -p undefined -e 20 -c 2 -a 0 -i 0 -k RTR
r -t 0.111923009 -s 23 -d -1 -p undefined -e 20 -c 2 -a 0 -i 0 -k RTR
+ -t 0.111923009 -s 23 -d -1 -p undefined -e 20 -c 2 -a 0 -i 0 -k RTR 
- -t 0.111923009 -s 23 -d -1 -p undefined -e 20 -c 2 -a 0 -i 0 -k RTR
h -t 0.111923009 -s 23 -d -1 -p undefined -e 20 -c 2 -a 0 -i 0 -k RTR
r -t 0.111923059 -s 15 -d -1 -p undefined -e 20 -c 2 -a 0 -i 0 -k RTR
r -t 0.112697156 -s 18 -d -1 -p undefined -e 20 -c 2 -a 0 -i 0 -k RTR
r -t 0.112697156 -s 15 -d -1 -p undefined -e 20 -c 2 -a 0 -i 0 -k RTR
r -t 0.112697156 -s 20 -d -1 -p undefined -e 20 -c 2 -a 0 -i 0 -k RTR
r -t 0.112697176 -s 22 -d -1 -p undefined -e 20 -c 2 -a 0 -i 0 -k RTR
+ -t 0.112697176 -s 22 -d -1 -p undefined -e 20 -c 2 -a 0 -i 0 -k RTR 
- -t 0.112697176 -s 22 -d -1 -p undefined -e 20 -c 2 -a 0 -i 0 -k RTR
h -t 0.112697176 -s 22 -d -1 -p undefined -e 20 -c 2 -a 0 -i 0 -k RTR
r -t 0.112697176 -s 23 -d -1 -p undefined -e 20 -c 2 -a 0 -i 0 -k RTR
r -t 0.112697225 -s 16 -d -1 -p undefined -e 20 -c 2 -a 0 -i 0 -k RTR
r -t 0.112697225 -s 14 -d -1 -p undefined -e 20 -c 2 -a 0 -i 0 -k RTR
r -t 0.113511392 -s 15 -d -1 -p undefined -e 20 -c 2 -a 0 -i 0 -k RTR
r -t 0.113511392 -s 12 -d -1 -p undefined -e 20 -c 2 -a 0 -i 0 -k RTR
r -t 0.113511392 -s 20 -d -1 -p undefined -e 20 -c 2 -a 0 -i 0 -k RTR
r -t 0.113511461 -s 11 -d -1 -p undefined -e 20 -c 2 -a 0 -i 0 -k RTR
r -t 0.113511461 -s 19 -d -1 -p undefined -e 20 -c 2 -a 0 -i 0 -k RTR
r -t 0.114225559 -s 11 -d -1 -p undefined -e 20 -c 2 -a 0 -i 0 -k RTR
r -t 0.114225559 -s 8 -d -1 -p undefined -e 20 -c 2 -a 0 -i 0 -k RTR
r -t 0.114225559 -s 16 -d -1 -p undefined -e 20 -c 2 -a 0 -i 0 -k RTR
r -t 0.114225628 -s 7 -d -1 -p undefined -e 20 -c 2 -a 0 -i 0 -k RTR
r -t 0.114225628 -s 15 -d -1 -p undefined -e 20 -c 2 -a 0 -i 0 -k RTR
r -t 0.116342534 -s 9 -d -1 -p undefined -e 20 -c 2 -a 0 -i 0 -k RTR
r -t 0.116342534 -s 14 -d -1 -p undefined -e 20 -c 2 -a 0 -i 0 -k RTR
r -t 0.116342534 -s 17 -d -1 -p undefined -e 20 -c 2 -a 0 -i 0 -k RTR
r -t 0.116342603 -s 10 -d -1 -p undefined -e 20 -c 2 -a 0 -i 0 -k RTR
r -t 0.116342603 -s 18 -d -1 -p undefined -e 20 -c 2 -a 0 -i 0 -k RTR
r -t 0.117441068 -s 22 -d -1 -p undefined -e 20 -c 2 -a 0 -i 0 -k RTR
r -t 0.117441088 -s 20 -d -1 -p undefined -e 20 -c 2 -a 0 -i 0 -k RTR
r -t 0.117441088 -s 19 -d -1 -p undefined -e 20 -c 2 -a 0 -i 0 -k RTR
+ -t 0.200000000 -s 0 -d -1 -p undefined -e 20 -c 2 -a 0 -i 0 -k RTR 
- -t 0.200000000 -s 0 -d -1 -p undefined -e 20 -c 2 -a 0 -i 0 -k RTR
h -t 0.200000000 -s 0 -d -1 -p undefined -e 20 -c 2 -a 0 -i 0 -k RTR
r -t 0.201224186 -s 2 -d -1 -p undefined -e 20 -c 2 -a 0 -i 0 -k RTR
+ -t 0.201224186 -s 2 -d -1 -p undefined -e 20 -c 2 -a 0 -i 0 -k RTR 
- -t 0.201224186 -s 2 -d -1 -p undefined -e 20 -c 2 -a 0 -i 0 -k RTR
h -t 0.201224186 -s 2 -d -1 -p undefined -e 20 -c 2 -a 0 -i 0 -k RTR
r -t 0.201224186 -s 3 -d -1 -p undefined -e 20 -c 2 -a 0 -i 0 -k RTR
+ -t 0.201224186 -s 3 -d -1 -p undefined -e 20 -c 2 -a 0 -i 0 -k RTR 
- -t 0.201224186 -s 3 -d -1 -p undefined -e 20 -c 2 -a 0 -i 0 -k RTR
h -t 0.201224186 -s 3 -d -1 -p undefined -e 20 -c 2 -a 0 -i 0 -k RTR
r -t 0.202128353 -s 1 -d -1 -p undefined -e 20 -c 2 -a 0 -i 0 -k RTR
+ -t 0.202128353 -s 1 -d -1 -p undefined -e 20 -c 2 -a 0 -i 0 -k RTR 
- -t 0.202128353 -s 1 -d -1 -p undefined -e 20 -c 2 -a 0 -i 0 -k RTR
h -t 0.202128353 -s 1 -d -1 -p undefined -e 20 -c 2 -a 0 -i 0 -k RTR
r -t 0.202128353 -s 3 -d -1 -p undefined -e 20 -c 2 -a 0 -i 0 -k RTR
r -t 0.202128353 -s 6 -d -1 -p undefined -e 20 -c 2 -a 0 -i 0 -k RTR
+ -t 0.202128353 -s 6 -d -1 -p undefined -e 20 -c 2 -a 0 -i 0 -k RTR 
- -t 0.202128353 -s 6 -d -1 -p undefined -e 20 -c 2 -a 0 -i 0 -k RTR
h -t 0.202128353 -s 6 -d -1 -p undefined -e 20 -c 2 -a 0 -i 0 -k RTR
r -t 0.202128373 -s 0 -d -1 -p undefined -e 20 -c 2 -a 0 -i 0 -k RTR
r -t 0.202128422 -s 5 -d -1 -p undefined -e 20 -c 2 -a 0 -i 0 -k RTR
+ -t 0.202128422 -s 5 -d -1 -p undefined -e 20 -c 2 -a 0 -i 0 -k RTR 
- -t 0.202128422 -s 5 -d -1 -p undefined -e 20 -c 2 -a 0 -i 0 -k RTR
h -t 0.202128422 -s 5 -d -1 -p undefined -e 20 -c 2 -a 0 -i 0 -k RTR
r -t 0.202128422 -s 7 -d -1 -p undefined -e 20 -c 2 -a 0 -i 0 -k RTR
+ -t 0.202128422 -s 7 -d -1 -p undefined -e 20 -c 2 -a 0 -i 0 -k RTR 
- -t 0.202128422 -s 7 -d -1 -p undefined -e 20 -c 2 -a 0 -i 0 -k RTR
h -t 0.202128422 -s 7 -d -1 -p undefined -e 20 -c 2 -a 0 -i 0 -k RTR
r -t 0.202852520 -s 2 -d -1 -p undefined -e 20 -c 2 -a 0 -i 0 -k RTR
r -t 0.202852520 -s 5 -d -1 -p undefined -e 20 -c 2 -a 0 -i 0 -k RTR
r -t 0.202852589 -s 6 -d -1 -p undefined -e 20 -c 2 -a 0 -i 0 -k RTR
r -t 0.203746755 -s 5 -d -1 -p undefined -e 20 -c 2 -a 0 -i 0 -k RTR
r -t 0.203746755 -s 2 -d -1 -p undefined -e 20 -c 2 -a 0 -i 0 -k RTR
r -t 0.203746755 -s 7 -d -1 -p undefined -e 20 -c 2 -a 0 -i 0 -k RTR
r -t 0.203746755 -s 10 -d -1 -p undefined -e 20 -c 2 -a 0 -i 0 -k RTR
+ -t 0.203746755 -s 10 -d -1 -p undefined -e 20 -c 2 -a 0 -i 0 -k RTR 
- -t 0.203746755 -s 10 -d -1 -p undefined -e 20 -c 2 -a 0 -i 0 -k RTR
h -t 0.203746755 -s 10 -d -1 -p undefined -e 20 -c 2 -a 0 -i 0 -k RTR
r -t 0.203746824 -s 3 -d -1 -p undefined -e 20 -c 2 -a 0 -i 0 -k RTR
r -t 0.203746824 -s 1 -d -1 -p undefined -e 20 -c 2 -a 0 -i 0 -k RTR
r -t 0.203746824 -s 9 -d -1 -p undefined -e 20 -c 2 -a 0 -i 0 -k RTR
+ -t 0.203746824 -s 9 -d -1 -p undefined -e 20 -c 2 -a 0 -i 0 -k RTR 
- -t 0.203746824 -s 9 -d -1 -p undefined -e 20 -c 2 -a 0 -i 0 -k RTR
h -t 0.203746824 -s 9 -d -1 -p undefined -e 20 -c 2 -a 0 -i 0 -k RTR
r -t 0.203746824 -s 11 -d -1 -p undefined -e 20 -c 2 -a 0 -i 0 -k RTR
+ -t 0.203746824 -s 11 -d -1 -p undefined -e 20 -c 2 -a 0 -i 0 -k RTR 
- -t 0.203746824 -s 11 -d -1 -p undefined -e 20 -c 2 -a 0 -i 0 -k RTR
h -t 0.203746824 -s 11 -d -1 -p undefined -e 20 -c 2 -a 0 -i 0 -k RTR
r -t 0.204470991 -s 5 -d -1 -p undefined -e 20 -c 2 -a 0 -i 0 -k RTR
r -t 0.204470991 -s 10 -d -1 -p undefined -e 20 -c 2 -a 0 -i 0 -k RTR
r -t 0.204470991 -s 13 -d -1 -p undefined -e 20 -c 2 -a 0 -i 0 -k RTR
+ -t 0.204470991 -s 13 -d -1 -p undefined -e 20 -c 2 -a 0 -i 0 -k RTR 
- -t 0.204470991 -s 13 -d -1 -p undefined -e 20 -c 2 -a 0 -i 0 -k RTR
h -t 0.204470991 -s 13 -d -1 -p undefined -e 20 -c 2 -a 0 -i 0 -k RTR
r -t 0.204471060 -s 6 -d -1 -p undefined -e 20 -c 2 -a 0 -i 0 -k RTR
r -t 0.204471060 -s 14 -d -1 -p undefined -e 20 -c 2 -a 0 -i 0 -k RTR
+ -t 0.204471060 -s 14 -d -1 -p undefined -e 20 -c 2 -a 0 -i 0 -k RTR 
- -t 0.204471060 -s 14 -d -1 -p undefined -e 20 -c 2 -a 0 -i 0 -k RTR
h -t 0.204471060 -s 14 -d -1 -p undefined -e 20 -c 2 -a 0 -i 0 -k RTR
r -t 0.205205158 -s 1 -d -1 -p undefined -e 20 -c 2 -a 0 -i 0 -k RTR
r -t 0.205205158 -s 6 -d -1 -p undefined -e 20 -c 2 -a 0 -i 0 -k RTR
r -t 0.205205158 -s 9 -d -1 -p undefined -e 20 -c 2 -a 0 -i 0 -k RTR
r -t 0.205205227 -s 2 -d -1 -p undefined -e 20 -c 2 -a 0 -i 0 -k RTR
r -t 0.205205227 -s 10 -d -1 -p undefined -e 20 -c 2 -a 0 -i 0 -k RTR
r -t 0.206119393 -s 9 -d -1 -p undefined -e 20 -c 2 -a 0 -i 0 -k RTR
r -t 0.206119393 -s 6 -d -1 -p undefined -e 20 -c 2 -a 0 -i 0 -k RTR
r -t 0.206119393 -s 11 -d -1 -p undefined -e 20 -c 2 -a 0 -i 0 -k RTR
r -t 0.206119393 -s 14 -d -1 -p undefined -e 20 -c 2 -a 0 -i 0 -k RTR
r -t 0.206119462 -s 7 -d -1 -p undefined -e 20 -c 2 -a 0 -i 0 -k RTR
r -t 0.206119462 -s 5 -d -1 -p undefined -e 20 -c 2 -a 0 -i 0 -k RTR
r -t 0.206119462 -s 13 -d -1 -p undefined -e 20 -c 2 -a 0 -i 0 -k RTR
r -t 0.206119462 -s 15 -d -1 -p undefined -e 20 -c 2 -a 0 -i 0 -k RTR
+ -t 0.206119462 -s 15 -d -1 -p undefined -e 20 -c 2 -a 0 -i 0 -k RTR 
- -t 0.206119462 -s 15 -d -1 -p undefined -e 20 -c 2 -a 0 -i 0 -k RTR
h -t 0.206119462 -s 15 -d -1 -p undefined -e 20 -c 2 -a 0 -i 0 -k RTR
r -t 0.206813560 -s 13 -d -1 -p undefined -e 20 -c 2 -a 0 -i 0 -k RTR
r -t 0.206813560 -s 10 -d -1 -p undefined -e 20 -c 2 -a 0 -i 0 -k RTR
r -t 0.206813560 -s 15 -d -1 -p undefined -e 20 -c 2 -a 0 -i 0 -k RTR
r -t 0.206813560 -s 18 -d -1 -p undefined -e 20 -c 2 -a 0 -i 0 -k RTR
+ -t 0.206813560 -s 18 -d -1 -p undefined -e 20 -c 2 -a 0 -i 0 -k RTR 
- -t 0.206813560 -s 18 -d -1 -p undefined -e 20 -c 2 -a 0 -i 0 -k RTR
h -t 0.206813560 -s 18 -d -1 -p undefined -e 20 -c 2 -a 0 -i 0 -k RTR
r -t 0.206813629 -s 11 -d -1 -p undefined -e 20 -c 2 -a 0 -i 0 -k RTR
r -t 0.206813629 -s 9 -d -1 -p undefined -e 20 -c 2 -a 0 -i 0 -k RTR
r -t 0.206813629 -s 17 -d -1 -p undefined -e 20 -c 2 -a 0 -i 0 -k RTR
+ -t 0.206813629 -s 17 -d -1 -p undefined -e 20 -c 2 -a 0 -i 0 -k RTR 
- -t 0.206813629 -s 17 -d -1 -p undefined -e 20 -c 2 -a 0 -i 0 -k RTR
h -t 0.206813629 -s 17 -d -1 -p undefined -e 20 -c 2 -a 0 -i 0 -k RTR
r -t 0.206813629 -s 19 -d -1 -p undefined -e 20 -c 2 -a 0 -i 0 -k RTR
+ -t 0.206813629 -s 19 -d -1 -p undefined -e 20 -c 2 -a 0 -i 0 -k RTR 
- -t 0.206813629 -s 19 -d -1 -p undefined -e 20 -c 2 -a 0 -i 0 -k RTR
h -t 0.206813629 -s 19 -d -1 -p undefined -e 20 -c 2 -a 0 -i 0 -k RTR
r -t 0.207577727 -s 17 -d -1 -p undefined -e 20 -c 2 -a 0 -i 0 -k RTR
r -t 0.207577727 -s 14 -d -1 -p undefined -e 20 -c 2 -a 0 -i 0 -k RTR
r -t 0.207577727 -s 19 -d -1 -p undefined -e 20 -c 2 -a 0 -i 0 -k RTR
r -t 0.207577746 -s 21 -d -1 -p undefined -e 20 -c 2 -a 0 -i 0 -k RTR
+ -t 0.207577746 -s 21 -d -1 -p undefined -e 20 -c 2 -a 0 -i 0 -k RTR 
- -t 0.207577746 -s 21 -d -1 -p undefined -e 20 -c 2 -a 0 -i 0 -k RTR
h -t 0.207577746 -s 21 -d -1 -p undefined -e 20 -c 2 -a 0 -i 0 -k RTR
r -t 0.207577746 -s 22 -d -1 -p undefined -e 20 -c 2 -a 0 -i 0 -k RTR
+ -t 0.207577746 -s 22 -d -1 -p undefined -e 20 -c 2 -a 0 -i 0 -k RTR 
- -t 0.207577746 -s 22 -d -1 -p undefined -e 20 -c 2 -a 0 -i 0 -k RTR
h -t 0.207577746 -s 22 -d -1 -p undefined -e 20 -c 2 -a 0 -i 0 -k RTR
r -t 0.207577796 -s 15 -d -1 -p undefined -e 20 -c 2 -a 0 -i 0 -k RTR
r -t 0.207577796 -s 13 -d -1 -p undefined -e 20 -c 2 -a 0 -i 0 -k RTR
r -t 0.208291962 -s 14 -d -1 -p undefined -e 20 -c 2 -a 0 -i 0 -k RTR
r -t 0.208291962 -s 11 -d -1 -p undefined -e 20 -c 2 -a 0 -i 0 -k RTR
r -t 0.208291962 -s 16 -d -1 -p undefined -e 20 -c 2 -a 0 -i 0 -k RTR
+ -t 0.208291962 -s 16 -d -1 -p undefined -e 20 -c 2 -a 0 -i 0 -k RTR 
- -t 0.208291962 -s 16 -d -1 -p undefined -e 20 -c 2 -a 0 -i 0 -k RTR
h -t 0.208291962 -s 16 -d -1 -p undefined -e 20 -c 2 -a 0 -i 0 -k RTR
r -t 0.208291962 -s 19 -d -1 -p undefined -e 20 -c 2 -a 0 -i 0 -k RTR
r -t 0.208292032 -s 12 -d -1 -p undefined -e 20 -c 2 -a 0 -i 0 -k RTR
+ -t 0.208292032 -s 12 -d -1 -p undefined -e 20 -c 2 -a 0 -i 0 -k RTR 
- -t 0.208292032 -s 12 -d -1 -p undefined -e 20 -c 2 -a 0 -i 0 -k RTR
h -t 0.208292032 -s 12 -d -1 -p undefined -e 20 -c 2 -a 0 -i 0 -k RTR
r -t 0.208292032 -s 10 -d -1 -p undefined -e 20 -c 2 -a 0 -i 0 -k RTR
r -t 0.208292032 -s 18 -d -1 -p undefined -e 20 -c 2 -a 0 -i 0 -k RTR
r -t 0.208292032 -s 20 -d -1 -p undefined -e 20 -c 2 -a 0 -i 0 -k RTR
+ -t 0.208292032 -s 20 -d -1 -p undefined -e 20 -c 2 -a 0 -i 0 -k RTR 
- -t 0.208292032 -s 20 -d -1 -p undefined -e 20 -c 2 -a 0 -i 0 -k RTR
h -t 0.208292032 -s 20 -d -1 -p undefined -e 20 -c 2 -a 0 -i 0 -k RTR
r -t 0.209006129 -s 18 -d -1 -p undefined -e 20 -c 2 -a 0 -i 0 -k RTR
r -t 0.209006129 -s 15 -d -1 -p undefined -e 20 -c 2 -a 0 -i 0 -k RTR
r -t 0.209006129 -s 20 -d -1 -p undefined -e 20 -c 2 -a 0 -i 0 -k RTR
r -t 0.209006149 -s 22 -d -1 -p undefined -e 20 -c 2 -a 0 -i 0 -k RTR
r -t 0.209006149 -s 23 -d -1 -p undefined -e 20 -c 2 -a 0 -i 0 -k RTR
+ -t 0.209006149 -s 23 -d -1 -p undefined -e 20 -c 2 -a 0 -i 0 -k RTR 
- -t 0.209006149 -s 23 -d -1 -p undefined -e 20 -c 2 -a 0 -i 0 -k RTR
h -t 0.209006149 -s 23 -d -1 -p undefined -e 20 -c 2 -a 0 -i 0 -k RTR
r -t 0.209006198 -s 16 -d -1 -p undefined -e 20 -c 2 -a 0 -i 0 -k RTR
r -t 0.209006198 -s 14 -d -1 -p undefined -e 20 -c 2 -a 0 -i 0 -k RTR
r -t 0.209760315 -s 21 -d -1 -p undefined -e 20 -c 2 -a 0 -i 0 -k RTR
r -t 0.209760315 -s 23 -d -1 -p undefined -e 20 -c 2 -a 0 -i 0 -k RTR
r -t 0.209760335 -s 19 -d -1 -p undefined -e 20 -c 2 -a 0 -i 0 -k RTR
r -t 0.209760335 -s 18 -d -1 -p undefined -e 20 -c 2 -a 0 -i 0 -k RTR
r -t 0.210534502 -s 17 -d -1 -p undefined -e 20 -c 2 -a 0 -i 0 -k RTR
r -t 0.210534502 -s 20 -d -1 -p undefined -e 20 -c 2 -a 0 -i 0 -k RTR
r -t 0.211593352 -s 2 -d -1 -p undefined -e 20 -c 2 -a 0 -i 0 -k RTR
r -t 0.211593352 -s 4 -d -1 -p undefined -e 20 -c 2 -a 0 -i 0 -k RTR
+ -t 0.211593352 -s 4 -d -1 -p undefined -e 20 -c 2 -a 0 -i 0 -k RTR 
- -t 0.211593352 -s 4 -d -1 -p undefined -e 20 -c 2 -a 0 -i 0 -k RTR
h -t 0.211593352 -s 4 -d -1 -p undefined -e 20 -c 2 -a 0 -i 0 -k RTR
r -t 0.211593352 -s 7 -d -1 -p undefined -e 20 -c 2 -a 0 -i 0 -k RTR
r -t 0.211593372 -s 0 -d -1 -p undefined -e 20 -c 2 -a 0 -i 0 -k RTR
r -t 0.211593421 -s 6 -d -1 -p undefined -e 20 -c 2 -a 0 -i 0 -k RTR
r -t 0.211593421 -s 8 -d -1 -p undefined -e 20 -c 2 -a 0 -i 0 -k RTR
+ -t 0.211593421 -s 8 -d -1 -p undefined -e 20 -c 2 -a 0 -i 0 -k RTR 
- -t 0.211593421 -s 8 -d -1 -p undefined -e 20 -c 2 -a 0 -i 0 -k RTR
h -t 0.211593421 -s 8 -d -1 -p undefined -e 20 -c 2 -a 0 -i 0 -k RTR
r -t 0.212347519 -s 6 -d -1 -p undefined -e 20 -c 2 -a 0 -i 0 -k RTR
r -t 0.212347519 -s 3 -d -1 -p undefined -e 20 -c 2 -a 0 -i 0 -k RTR
r -t 0.212347519 -s 8 -d -1 -p undefined -e 20 -c 2 -a 0 -i 0 -k RTR
r -t 0.212347519 -s 11 -d -1 -p undefined -e 20 -c 2 -a 0 -i 0 -k RTR
r -t 0.212347588 -s 4 -d -1 -p undefined -e 20 -c 2 -a 0 -i 0 -k RTR
r -t 0.212347588 -s 2 -d -1 -p undefined -e 20 -c 2 -a 0 -i 0 -k RTR
r -t 0.212347588 -s 10 -d -1 -p undefined -e 20 -c 2 -a 0 -i 0 -k RTR
r -t 0.212347588 -s 12 -d -1 -p undefined -e 20 -c 2 -a 0 -i 0 -k RTR
r -t 0.213061755 -s 11 -d -1 -p undefined -e 20 -c 2 -a 0 -i 0 -k RTR
r -t 0.213061755 -s 8 -d -1 -p undefined -e 20 -c 2 -a 0 -i 0 -k RTR
r -t 0.213061755 -s 16 -d -1 -p undefined -e 20 -c 2 -a 0 -i 0 -k RTR
r -t 0.213061824 -s 7 -d -1 -p undefined -e 20 -c 2 -a 0 -i 0 -k RTR
r -t 0.213061824 -s 15 -d -1 -p undefined -e 20 -c 2 -a 0 -i 0 -k RTR
r -t 0.213775921 -s 10 -d -1 -p undefined -e 20 -c 2 -a 0 -i 0 -k RTR
r -t 0.213775921 -s 7 -d -1 -p undefined -e 20 -c 2 -a 0 -i 0 -k RTR
r -t 0.213775921 -s 12 -d -1 -p undefined -e 20 -c 2 -a 0 -i 0 -k RTR
r -t 0.213775921 -s 15 -d -1 -p undefined -e 20 -c 2 -a 0 -i 0 -k RTR
r -t 0.213775990 -s 8 -d -1 -p undefined -e 20 -c 2 -a 0 -i 0 -k RTR
r -t 0.213775990 -s 6 -d -1 -p undefined -e 20 -c 2 -a 0 -i 0 -k RTR
r -t 0.213775990 -s 14 -d -1 -p undefined -e 20 -c 2 -a 0 -i 0 -k RTR
r -t 0.213775990 -s 16 -d -1 -p undefined -e 20 -c 2 -a 0 -i 0 -k RTR
r -t 0.214510157 -s 15 -d -1 -p undefined -e 20 -c 2 -a 0 -i 0 -k RTR
r -t 0.214510157 -s 12 -d -1 -p undefined -e 20 -c 2 -a 0 -i 0 -k RTR
r -t 0.214510157 -s 20 -d -1 -p undefined -e 20 -c 2 -a 0 -i 0 -k RTR
r -t 0.214510226 -s 11 -d -1 -p undefined -e 20 -c 2 -a 0 -i 0 -k RTR
r -t 0.214510226 -s 19 -d -1 -p undefined -e 20 -c 2 -a 0 -i 0 -k RTR
r -t 0.215424324 -s 19 -d -1 -p undefined -e 20 -c 2 -a 0 -i 0 -k RTR
r -t 0.215424324 -s 16 -d -1 -p undefined -e 20 -c 2 -a 0 -i 0 -k RTR
r -t 0.215424343 -s 23 -d -1 -p undefined -e 20 -c 2 -a 0 -i 0 -k RTR
r -t 0.215424393 -s 15 -d -1 -p undefined -e 20 -c 2 -a 0 -i 0 -k RTR
r -t 0.216582851 -s 9 -d -1 -p undefined -e 20 -c 2 -a 0 -i 0 -k RTR
r -t 0.216582851 -s 14 -d -1 -p undefined -e 20 -c 2 -a 0 -i 0 -k RTR
r -t 0.216582851 -s 17 -d -1 -p undefined -e 20 -c 2 -a 0 -i 0 -k RTR
r -t 0.216582920 -s 10 -d -1 -p undefined -e 20 -c 2 -a 0 -i 0 -k RTR
r -t 0.216582920 -s 18 -d -1 -p undefined -e 20 -c 2 -a 0 -i 0 -k RTR
r -t 0.217497017 -s 13 -d -1 -p undefined -e 20 -c 2 -a 0 -i 0 -k RTR
r -t 0.217497017 -s 18 -d -1 -p undefined -e 20 -c 2 -a 0 -i 0 -k RTR
r -t 0.217497037 -s 21 -d -1 -p undefined -e 20 -c 2 -a 0 -i 0 -k RTR
r -t 0.217497086 -s 14 -d -1 -p undefined -e 20 -c 2 -a 0 -i 0 -k RTR
+ -t 0.300000000 -s 0 -d -1 -p undefined -e 20 -c 2 -a 0 -i 0 -k RTR 
- -t 0.300000000 -s 0 -d -1 -p undefined -e 20 -c 2 -a 0 -i 0 -k RTR
h -t 0.300000000 -s 0 -d -1 -p undefined -e 20 -c 2 -a 0 -i 0 -k RTR
r -t 0.301164186 -s 2 -d -1 -p undefined -e 20 -c 2 -a 0 -i 0 -k RTR
+ -t 0.301164186 -s 2 -d -1 -p undefined -e 20 -c 2 -a 0 -i 0 -k RTR 
- -t 0.301164186 -s 2 -d -1 -p undefined -e 20 -c 2 -a 0 -i 0 -k RTR
h -t 0.301164186 -s 2 -d -1 -p undefined -e 20 -c 2 -a 0 -i 0 -k RTR
r -t 0.301164186 -s 3 -d -1 -p undefined -e 20 -c 2 -a 0 -i 0 -k RTR
+ -t 0.301164186 -s 3 -d -1 -p undefined -e 20 -c 2 -a 0 -i 0 -k RTR 
- -t 0.301164186 -s 3 -d -1 -p undefined -e 20 -c 2 -a 0 -i 0 -k RTR
h -t 0.301164186 -s 3 -d -1 -p undefined -e 20 -c 2 -a 0 -i 0 -k RTR
r -t 0.302008353 -s 1 -d -1 -p undefined -e 20 -c 2 -a 0 -i 0 -k RTR
+ -t 0.302008353 -s 1 -d -1 -p undefined -e 20 -c 2 -a 0 -i 0 -k RTR 
- -t 0.302008353 -s 1 -d -1 -p undefined -e 20 -c 2 -a 0 -i 0 -k RTR
h -t 0.302008353 -s 1 -d -1 -p undefined -e 20 -c 2 -a 0 -i 0 -k RTR
r -t 0.302008353 -s 3 -d -1 -p undefined -e 20 -c 2 -a 0 -i 0 -k RTR
r -t 0.302008353 -s 6 -d -1 -p undefined -e 20 -c 2 -a 0 -i 0 -k RTR
+ -t 0.302008353 -s 6 -d -1 -p undefined -e 20 -c 2 -a 0 -i 0 -k RTR 
- -t 0.302008353 -s 6 -d -1 -p undefined -e 20 -c 2 -a 0 -i 0 -k RTR
h -t 0.302008353 -s 6 -d -1 -p undefined -e 20 -c 2 -a 0 -i 0 -k RTR
r -t 0.302008373 -s 0 -d -1 -p undefined -e 20 -c 2 -a 0 -i 0 -k RTR
r -t 0.302008422 -s 5 -d -1 -p undefined -e 20 -c 2 -a 0 -i 0 -k RTR
+ -t 0.302008422 -s 5 -d -1 -p undefined -e 20 -c 2 -a 0 -i 0 -k RTR 
- -t 0.302008422 -s 5 -d -1 -p undefined -e 20 -c 2 -a 0 -i 0 -k RTR
h -t 0.302008422 -s 5 -d -1 -p undefined -e 20 -c 2 -a 0 -i 0 -k RTR
r -t 0.302008422 -s 7 -d -1 -p undefined -e 20 -c 2 -a 0 -i 0 -k RTR
+ -t 0.302008422 -s 7 -d -1 -p undefined -e 20 -c 2 -a 0 -i 0 -k RTR 
- -t 0.302008422 -s 7 -d -1 -p undefined -e 20 -c 2 -a 0 -i 0 -k RTR
h -t 0.302008422 -s 7 -d -1 -p undefined -e 20 -c 2 -a 0 -i 0 -k RTR
r -t 0.302722520 -s 2 -d -1 -p undefined -e 20 -c 2 -a 0 -i 0 -k RTR
r -t 0.302722520 -s 4 -d -1 -p undefined -e 20 -c 2 -a 0 -i 0 -k RTR
+ -t 0.302722520 -s 4 -d -1 -p undefined -e 20 -c 2 -a 0 -i 0 -k RTR 
- -t 0.302722520 -s 4 -d -1 -p undefined -e 20 -c 2 -a 0 -i 0 -k RTR
h -t 0.302722520 -s 4 -d -1 -p undefined -e 20 -c 2 -a 0 -i 0 -k RTR
r -t 0.302722520 -s 7 -d -1 -p undefined -e 20 -c 2 -a 0 -i 0 -k RTR
r -t 0.302722539 -s 0 -d -1 -p undefined -e 20 -c 2 -a 0 -i 0 -k RTR
r -t 0.302722589 -s 6 -d -1 -p undefined -e 20 -c 2 -a 0 -i 0 -k RTR
r -t 0.302722589 -s 8 -d -1 -p undefined -e 20 -c 2 -a 0 -i 0 -k RTR
+ -t 0.302722589 -s 8 -d -1 -p undefined -e 20 -c 2 -a 0 -i 0 -k RTR 
- -t 0.302722589 -s 8 -d -1 -p undefined -e 20 -c 2 -a 0 -i 0 -k RTR
h -t 0.302722589 -s 8 -d -1 -p undefined -e 20 -c 2 -a 0 -i 0 -k RTR
r -t 0.303536755 -s 5 -d -1 -p undefined -e 20 -c 2 -a 0 -i 0 -k RTR
r -t 0.303536755 -s 2 -d -1 -p undefined -e 20 -c 2 -a 0 -i 0 -k RTR